20
Coordinates from ORCA-job 1 Relaxed Surface Scan Step 1
  C      -0.661479      0.633887     -0.350277
  H      -1.059994     -0.021618     -1.130459
  C      -1.711975      0.729106      0.777413
  H      -1.257412      1.221928      1.642987
  H      -2.495194      1.405864      0.427607
  C      -0.379135      2.009199     -0.954388
  H       0.384579      1.963474     -1.729102
  H      -1.291207      2.408594     -1.400202
  H      -0.035648      2.711889     -0.194843
  C       0.582910     -0.084799      0.142264
  O       0.606932     -1.232978      0.437678
  O       1.651008      0.688016      0.222759
  C       2.861711      0.099161      0.642619
  H       3.606245      0.888867      0.624806
  H       2.766768     -0.302867      1.648953
  H       3.152048     -0.704295     -0.030794
  C      -2.354817     -0.586471      1.205498
  H      -1.626058     -1.283873      1.612882
  H      -3.115966     -0.401234      1.966193
  H      -2.843186     -1.075125      0.359343
20
Coordinates from ORCA-job 1 Relaxed Surface Scan Step 2
  C      -0.684269      0.630509     -0.407386
  H      -1.131536     -0.015713     -1.167036
  C      -1.674328      0.752837      0.770008
  H      -1.178327      1.275808      1.593697
  H      -2.484485      1.409185      0.443066
  C      -0.388652      1.998903     -1.021209
  H       0.353551      1.934417     -1.816503
  H      -1.302338      2.417256     -1.446051
  H      -0.009903      2.694459     -0.272697
  C       0.562484     -0.112399      0.034498
  O       0.633255     -1.292534      0.121794
  O       1.571146      0.684082      0.342702
  C       2.784303      0.088630      0.745008
  H       3.477192      0.903610      0.929473
  H       2.645554     -0.496406      1.651643
  H       3.171099     -0.561422     -0.036809
  C      -2.270413     -0.559882      1.268804
  H      -1.507856     -1.240079      1.645167
  H      -2.981960     -0.368160      2.074337
  H      -2.804389     -1.076379      0.468430
20
Coordinates from ORCA-job 1 Relaxed Surface Scan Step 3
  C      -0.705947      0.631389     -0.451941
  H      -1.192426     -0.008002     -1.191375
  C      -1.641230      0.776517      0.764430
  H      -1.115369      1.328454      1.548767
  H      -2.478665      1.408469      0.458518
  C      -0.400817      1.991118     -1.082297
  H       0.306662      1.903375     -1.907555
  H      -1.318812      2.431654     -1.474228
  H       0.024682      2.678318     -0.351744
  C       0.548312     -0.124023     -0.059311
  O       0.683161     -1.296554     -0.165216
  O       1.485757      0.657827      0.449988
  C       2.704396      0.064541      0.837591
  H       3.332123      0.869811      1.206162
  H       2.543565     -0.672310      1.621687
  H       3.181400     -0.422929     -0.009978
  C      -2.184401     -0.535137      1.323533
  H      -1.389602     -1.190055      1.680967
  H      -2.859217     -0.340802      2.159244
  H      -2.743442     -1.084935      0.563695
20
Coordinates from ORCA-job 1 Relaxed Surface Scan Step 4
  C      -0.725525      0.635323     -0.485939
  H      -1.240320     -0.001075     -1.207347
  C      -1.617661      0.800219      0.756755
  H      -1.079408      1.390263      1.502740
  H      -2.485194      1.396079      0.462115
  C      -0.416094      1.985571     -1.137379
  H       0.246869      1.873065     -1.996711
  H      -1.339176      2.449672     -1.487974
  H       0.061818      2.663465     -0.430762
  C       0.541115     -0.121193     -0.140239
  O       0.753853     -1.249591     -0.431148
  O       1.399876      0.612470      0.549835
  C       2.626431      0.025102      0.920128
  H       3.179730      0.787575      1.459467
  H       2.463488     -0.840084      1.559345
  H       3.184163     -0.288568      0.040236
  C      -2.097090     -0.509538      1.375683
  H      -1.267493     -1.123024      1.731033
  H      -2.750696     -0.313162      2.227434
  H      -2.658555     -1.105846      0.653665
20
Coordinates from ORCA-job 1 Relaxed Surface Scan Step 5
  C      -0.741160      0.639187     -0.510338
  H      -1.274278     -0.001369     -1.213875
  C      -1.600410      0.822654      0.749606
  H      -1.060892      1.452495      1.460109
  H      -2.495797      1.378986      0.460659
  C      -0.437437      1.978769     -1.189389
  H       0.176576      1.841598     -2.081294
  H      -1.366486      2.461340     -1.496480
  H       0.090213      2.651561     -0.513232
  C       0.543841     -0.104616     -0.207763
  O       0.845369     -1.151945     -0.671089
  O       1.318854      0.550834      0.642488
  C       2.555814     -0.026438      0.992987
  H       3.027422      0.660408      1.688871
  H       2.409891     -0.995252      1.466046
  H       3.183509     -0.156158      0.113809
  C      -2.015876     -0.481290      1.424264
  H      -1.153251     -1.046853      1.782761
  H      -2.656368     -0.282027      2.285146
  H      -2.569405     -1.125160      0.737650
20
Coordinates from ORCA-job 1 Relaxed Surface Scan Step 6
  C      -0.748609      0.640940     -0.523257
  H      -1.290200     -0.016194     -1.204345
  C      -1.582321      0.842864      0.748318
  H      -1.042163      1.501079      1.431221
  H      -2.495655      1.371881      0.463917
  C      -0.469291      1.966999     -1.241334
  H       0.097432      1.805533     -2.160098
  H      -1.408372      2.453224     -1.509442
  H       0.096469      2.647727     -0.603827
  C       0.562046     -0.072889     -0.259059
  O       0.957155     -1.005086     -0.873274
  O       1.252957      0.478926      0.726333
  C       2.502405     -0.083906      1.055539
  H       2.890701      0.498153      1.885526
  H       2.390969     -1.125345      1.349810
  H       3.185064     -0.029273      0.210057
  C      -1.955388     -0.451526      1.464578
  H      -1.071785     -0.985937      1.819972
  H      -2.582412     -0.245377      2.333697
  H      -2.508873     -1.125069      0.806604
20
Coordinates from ORCA-job 1 Relaxed Surface Scan Step 7
  C      -0.746314      0.641938     -0.524902
  H      -1.286393     -0.044816     -1.177895
  C      -1.561032      0.862211      0.753908
  H      -1.016208      1.534338      1.418861
  H      -2.481048      1.381262      0.472505
  C      -0.512452      1.949423     -1.294274
  H       0.018649      1.762298     -2.228913
  H      -1.466875      2.418508     -1.537162
  H       0.070521      2.656387     -0.700944
  C       0.595904     -0.025141     -0.293059
  O       1.082372     -0.812925     -1.031618
  O       1.205369      0.397214      0.802686
  C       2.470155     -0.145894      1.106862
  H       2.779887      0.307324      2.043378
  H       2.409128     -1.226476      1.216724
  H       3.188651      0.087351      0.323835
  C      -1.920502     -0.421300      1.496304
  H      -1.030197     -0.947776      1.845150
  H      -2.534268     -0.202803      2.371917
  H      -2.485216     -1.104398      0.857572
20
Coordinates from ORCA-job 1 Relaxed Surface Scan Step 8
  C      -0.734245      0.645363     -0.519656
  H      -1.262476     -0.082998     -1.137810
  C      -1.535376      0.883117      0.763906
  H      -0.981011      1.557248      1.418785
  H      -2.453436      1.406811      0.484974
  C      -0.567593      1.927046     -1.349052
  H      -0.048296      1.717180     -2.284677
  H      -1.543970      2.350038     -1.588708
  H      -0.000072      2.681263     -0.799290
  C       0.641934      0.038361     -0.311557
  O       1.213974     -0.581296     -1.143590
  O       1.172452      0.303019      0.869920
  C       2.454057     -0.215185      1.148327
  H       2.693146      0.091085      2.161920
  H       2.454579     -1.300506      1.075177
  H       3.190342      0.184021      0.454040
  C      -1.903802     -0.389506      1.520924
  H      -1.017525     -0.927610      1.859591
  H      -2.502187     -0.154663      2.403054
  H      -2.490364     -1.066063      0.894658
20
Coordinates from ORCA-job 1 Relaxed Surface Scan Step 9
  C      -0.713937      0.652112     -0.512149
  H      -1.220396     -0.126583     -1.088066
  C      -1.505508      0.906316      0.775075
  H      -0.939894      1.576789      1.424324
  H      -2.416734      1.442071      0.497301
  C      -0.631816      1.898988     -1.404355
  H      -0.105799      1.674513     -2.331768
  H      -1.633914      2.249835     -1.653557
  H      -0.107930      2.713029     -0.897606
  C       0.695422      0.115100     -0.318727
  O       1.348347     -0.317076     -1.208193
  O       1.148277      0.196198      0.919391
  C       2.445812     -0.291821      1.179760
  H       2.616010     -0.151903      2.242649
  H       2.518279     -1.346663      0.924295
  H       3.187188      0.260396      0.606454
  C      -1.895799     -0.354257      1.541756
  H      -1.020452     -0.912353      1.873576
  H      -2.481241     -0.100511      2.427489
  H      -2.505784     -1.017454      0.923286
20
Coordinates from ORCA-job 1 Relaxed Surface Scan Step 10
  C      -0.688800      0.659326     -0.504411
  H      -1.163592     -0.174746     -1.030591
  C      -1.474204      0.931440      0.785556
  H      -0.896032      1.595103      1.431311
  H      -2.374827      1.484036      0.507195
  C      -0.698667      1.861183     -1.457816
  H      -0.154626      1.632520     -2.372503
  H      -1.723911      2.124020     -1.720497
  H      -0.237141      2.735844     -0.992997
  C       0.750801      0.202229     -0.315011
  O       1.480812     -0.023453     -1.220947
  O       1.127822      0.077238      0.944288
  C       2.440725     -0.371738      1.198098
  H       2.542855     -0.418144      2.277763
  H       2.601444     -1.355941      0.763735
  H       3.170793      0.319339      0.782692
  C      -1.894015     -0.314589      1.560696
  H      -1.033776     -0.894860      1.891209
  H      -2.470453     -0.039418      2.446095
  H      -2.525081     -0.962666      0.947071
20
Coordinates from ORCA-job 1 Relaxed Surface Scan Step 11
  C      -0.663076      0.663805     -0.497615
  H      -1.098590     -0.224563     -0.968947
  C      -1.445677      0.957414      0.793466
  H      -0.855593      1.614795      1.435770
  H      -2.333827      1.527586      0.511625
  C      -0.759464      1.812502     -1.506623
  H      -0.197231      1.586359     -2.409781
  H      -1.801109      1.986913     -1.778225
  H      -0.363088      2.738694     -1.083735
  C       0.800355      0.293073     -0.299530
  O       1.599532      0.291568     -1.174532
  O       1.108991     -0.053209      0.937298
  C       2.436501     -0.449940      1.200361
  H       2.476485     -0.696789      2.256663
  H       2.704933     -1.318075      0.602454
  H       3.130561      0.357750      0.978735
  C      -1.896300     -0.271086      1.579157
  H      -1.051969     -0.869523      1.915936
  H      -2.469168      0.027453      2.459424
  H      -2.542138     -0.908003      0.969035
20
Coordinates from ORCA-job 1 Relaxed Surface Scan Step 12
  C      -0.642555      0.663023     -0.493333
  H      -1.037699     -0.270664     -0.910922
  C      -1.426840      0.982929      0.795245
  H      -0.831498      1.645103      1.429017
  H      -2.306746      1.560434      0.503602
  C      -0.804894      1.757706     -1.549244
  H      -0.231061      1.531597     -2.444560
  H      -1.855453      1.860101     -1.823626
  H      -0.460258      2.721148     -1.167351
  C       0.835237      0.377877     -0.271749
  O       1.686116      0.612216     -1.062153
  O       1.092638     -0.193956      0.892085
  C       2.431548     -0.524106      1.185272
  H       2.424328     -0.977158      2.171717
  H       2.824916     -1.226805      0.453981
  H       3.056045      0.366606      1.188103
  C      -1.895797     -0.225048      1.601388
  H      -1.061098     -0.826338      1.955030
  H      -2.472783      0.098158      2.470271
  H      -2.544016     -0.866098      0.998162
20
Coordinates from ORCA-job 1 Relaxed Surface Scan Step 13
  C      -0.632117      0.658506     -0.493629
  H      -0.991893     -0.306786     -0.867317
  C      -1.429335      1.007530      0.783461
  H      -0.851139      1.708870      1.392063
  H      -2.319194      1.556032      0.467520
  C      -0.828149      1.708013     -1.586481
  H      -0.241535      1.476420     -2.472448
  H      -1.880309      1.760225     -1.869353
  H      -0.520242      2.695251     -1.237502
  C       0.849346      0.450223     -0.230105
  O       1.724575      0.917712     -0.876985
  O       1.080907     -0.338559      0.806562
  C       2.422020     -0.600361      1.152717
  H       2.391101     -1.254702      2.018358
  H       2.943987     -1.089761      0.333317
  H       2.943374      0.321773      1.400599
  C      -1.876483     -0.175850      1.636777
  H      -1.032022     -0.740489      2.024941
  H      -2.472168      0.171705      2.483392
  H      -2.500595     -0.859027      1.055050
20
Coordinates from ORCA-job 1 Relaxed Surface Scan Step 14
  C      -0.634405      0.656865     -0.502061
  H      -0.961628     -0.325164     -0.857600
  C      -1.477497      1.025608      0.740519
  H      -0.984115      1.842004      1.277158
  H      -2.417001      1.442601      0.371431
  C      -0.821955      1.683882     -1.616849
  H      -0.200502      1.457056     -2.480945
  H      -1.864745      1.700745     -1.936705
  H      -0.552096      2.683572     -1.274538
  C       0.838188      0.507085     -0.168289
  O       1.706887      1.184745     -0.603278
  O       1.068701     -0.483889      0.677783
  C       2.396565     -0.700609      1.098125
  H       2.364918     -1.537379      1.788976
  H       3.035090     -0.940819      0.250709
  H       2.792511      0.181206      1.597435
  C      -1.805529     -0.110651      1.704877
  H      -0.915196     -0.524556      2.172270
  H      -2.468638      0.248688      2.494441
  H      -2.319424     -0.924268      1.187474
20
Coordinates from ORCA-job 1 Relaxed Surface Scan Step 15
  C      -0.646655      0.654439     -0.511725
  H      -0.938429     -0.336724     -0.868220
  C      -1.554795      1.028281      0.680042
  H      -1.196243      1.967778      1.111032
  H      -2.542288      1.245975      0.266706
  C      -0.795191      1.671314     -1.641832
  H      -0.150612      1.431914     -2.486656
  H      -1.826881      1.688925     -1.996042
  H      -0.529469      2.671837     -1.301311
  C       0.804129      0.545501     -0.084143
  O       1.626532      1.382303     -0.247831
  O       1.066552     -0.603251      0.517733
  C       2.364720     -0.801173      1.029611
  H       2.364841     -1.784634      1.489155
  H       3.103966     -0.761928      0.232445
  H       2.607601     -0.042586      1.770955
  C      -1.707793     -0.021077      1.777398
  H      -0.773196     -0.210515      2.302793
  H      -2.442690      0.312944      2.512320
  H      -2.053966     -0.972599      1.368509
20
Coordinates from ORCA-job 1 Relaxed Surface Scan Step 16
  C      -0.661702      0.640798     -0.493955
  H      -0.930736     -0.359777     -0.837276
  C      -1.615961      1.039748      0.648958
  H      -1.325319      2.028063      1.015021
  H      -2.611953      1.154058      0.214428
  C      -0.756868      1.627513     -1.657144
  H      -0.100174      1.342162     -2.479706
  H      -1.778248      1.661098     -2.039165
  H      -0.472349      2.629552     -1.337750
  C       0.762766      0.564550      0.018914
  O       1.495837      1.490802      0.112483
  O       1.106345     -0.659317      0.383417
  C       2.386583     -0.847245      0.942547
  H       2.464998     -1.904194      1.177058
  H       3.162381     -0.563146      0.234862
  H       2.503358     -0.254620      1.847645
  C      -1.692685      0.058228      1.814732
  H      -0.742403     -0.028666      2.342833
  H      -2.440787      0.388075      2.537769
  H      -1.972952     -0.940957      1.475266
20
Coordinates from ORCA-job 1 Relaxed Surface Scan Step 17
  C      -0.675517      0.616979     -0.442067
  H      -0.937603     -0.392675     -0.760203
  C      -1.666404      1.068595      0.643584
  H      -1.382973      2.068635      0.980052
  H      -2.650012      1.163742      0.176922
  C      -0.702472      1.553832     -1.651604
  H      -0.017033      1.217294     -2.431550
  H      -1.705380      1.587305     -2.079876
  H      -0.413921      2.564394     -1.363328
  C       0.726586      0.560096      0.131631
  O       1.361556      1.513643      0.435467
  O       1.174706     -0.674752      0.274902
  C       2.462329     -0.850512      0.821703
  H       2.637816     -1.921310      0.850504
  H       3.213789     -0.365182      0.202649
  H       2.514690     -0.436478      1.826522
  C      -1.767389      0.129085      1.841672
  H      -0.823051      0.059453      2.385199
  H      -2.521752      0.484952      2.545403
  H      -2.047836     -0.880373      1.533355
20
Coordinates from ORCA-job 1 Relaxed Surface Scan Step 18
  C      -0.685478      0.582066     -0.372043
  H      -0.950710     -0.435208     -0.661895
  C      -1.707901      1.101582      0.647112
  H      -1.408580      2.102996      0.962861
  H      -2.667899      1.206709      0.135248
  C      -0.639231      1.460832     -1.626972
  H       0.077286      1.076866     -2.355407
  H      -1.619547      1.486874     -2.104953
  H      -0.351594      2.481400     -1.372819
  C       0.698962      0.530170      0.243844
  O       1.239787      1.457564      0.746192
  O       1.259166     -0.662623      0.150869
  C       2.557817     -0.824895      0.675501
  H       2.833107     -1.858992      0.493577
  H       3.260537     -0.158283      0.180169
  H       2.570623     -0.617655      1.743500
  C      -1.884595      0.205970      1.869584
  H      -0.961790      0.126247      2.448108
  H      -2.650177      0.608334      2.535099
  H      -2.189653     -0.803232      1.583361
20
Coordinates from ORCA-job 1 Relaxed Surface Scan Step 19
  C      -0.692143      0.541787     -0.297193
  H      -0.970507     -0.481044     -0.556098
  C      -1.735709      1.135024      0.654056
  H      -1.410409      2.132749      0.953891
  H      -2.665764      1.261605      0.093798
  C      -0.575931      1.354506     -1.594257
  H       0.162842      0.921835     -2.270319
  H      -1.534900      1.372302     -2.113740
  H      -0.283324      2.383771     -1.380785
  C       0.676080      0.478013      0.352119
  O       1.129469      1.316872      1.055788
  O       1.342056     -0.613357      0.016908
  C       2.648067     -0.772578      0.523555
  H       3.016389     -1.713554      0.127114
  H       3.289846      0.045045      0.202173
  H       2.638038     -0.804389      1.611046
  C      -2.007668      0.288505      1.893832
  H      -1.115670      0.189398      2.514874
  H      -2.784081      0.745062      2.510092
  H      -2.346551     -0.714828      1.624082
20
Coordinates from ORCA-job 1 Relaxed Surface Scan Step 20
  C      -0.697969      0.500945     -0.228416
  H      -1.008264     -0.523203     -0.448042
  C      -1.741903      1.172072      0.666932
  H      -1.371723      2.154360      0.965835
  H      -2.637476      1.343621      0.064046
  C      -0.523142      1.236419     -1.565669
  H       0.212607      0.737993     -2.196675
  H      -1.470256      1.263467     -2.105694
  H      -0.197680      2.266148     -1.404002
  C       0.655057      0.404535      0.448996
  O       1.028295      1.090850      1.339605
  O       1.413969     -0.529047     -0.101201
  C       2.726213     -0.689170      0.387717
  H       3.174916     -1.485690     -0.197545
  H       3.297946      0.228870      0.268900
  H       2.714634     -0.961798      1.440947
  C      -2.121278      0.367001      1.906176
  H      -1.265303      0.221334      2.565555
  H      -2.893444      0.883955      2.478752
  H      -2.515070     -0.615937      1.634719
20
Coordinates from ORCA-job 1 Relaxed Surface Scan Step 21
  C      -0.702687      0.456379     -0.176196
  H      -1.069161     -0.559835     -0.347425
  C      -1.718670      1.212548      0.685384
  H      -1.281230      2.161677      1.001474
  H      -2.573102      1.459470      0.050116
  C      -0.498038      1.108254     -1.551294
  H       0.194032      0.527267     -2.159631
  H      -1.449658      1.173144     -2.079716
  H      -0.102472      2.121764     -1.450785
  C       0.637621      0.304481      0.520602
  O       0.931059      0.776135      1.566966
  O       1.483082     -0.420001     -0.194771
  C       2.797143     -0.577000      0.288944
  H       3.324204     -1.174934     -0.447958
  H       3.284152      0.389261      0.402875
  H       2.797391     -1.085842      1.250619
  C      -2.217120      0.443875      1.905852
  H      -1.404911      0.219242      2.595674
  H      -2.962682      1.028563      2.448092
  H      -2.688825     -0.497723      1.612114
20
Coordinates from ORCA-job 1 Relaxed Surface Scan Step 22
  C      -0.706353      0.406570     -0.147665
  H      -1.137169     -0.593943     -0.258248
  C      -1.668149      1.249640      0.703161
  H      -1.151665      2.150927      1.041633
  H      -2.476041      1.586248      0.048968
  C      -0.514779      0.977745     -1.557562
  H       0.113500      0.326403     -2.162667
  H      -1.482079      1.079979     -2.050376
  H      -0.050621      1.966303     -1.525351
  C       0.626488      0.190184      0.552410
  O       0.835833      0.381044      1.703140
  O       1.561454     -0.256811     -0.269253
  C       2.859391     -0.449688      0.243823
  H       3.469583     -0.784744     -0.589090
  H       3.255814      0.479585      0.647339
  H       2.857282     -1.201302      1.030457
  C      -2.279538      0.525798      1.899688
  H      -1.517058      0.211662      2.609234
  H      -2.979793      1.180074      2.422927
  H      -2.835971     -0.358949      1.578368
20
Coordinates from ORCA-job 1 Relaxed Surface Scan Step 23
  C      -0.719435      0.348310     -0.147405
  H      -1.208769     -0.629714     -0.209454
  C      -1.616706      1.269223      0.702188
  H      -1.034762      2.134940      1.030406
  H      -2.394428      1.661772      0.042942
  C      -0.545571      0.872566     -1.574905
  H       0.041175      0.186882     -2.183014
  H      -1.523128      0.995541     -2.042443
  H      -0.044354      1.842549     -1.583892
  C       0.604100      0.066488      0.549089
  O       0.737406     -0.047358      1.721737
  O       1.617030     -0.066020     -0.288692
  C       2.892549     -0.329444      0.250076
  H       3.573584     -0.383938     -0.593438
  H       3.196942      0.466636      0.926008
  H       2.894957     -1.271775      0.793748
  C      -2.287301      0.611012      1.904704
  H      -1.556338      0.246330      2.622043
  H      -2.939522      1.325449      2.411382
  H      -2.907297     -0.232725      1.589857
20
Coordinates from ORCA-job 1 Relaxed Surface Scan Step 24
  C      -0.749398      0.288172     -0.175390
  H      -1.293837     -0.661064     -0.215909
  C      -1.579203      1.272129      0.677060
  H      -0.951924      2.127551      0.946790
  H      -2.364171      1.671683      0.030713
  C      -0.569697      0.802362     -1.604070
  H       0.004236      0.107916     -2.214510
  H      -1.546616      0.939013     -2.069622
  H      -0.051178      1.762170     -1.617681
  C       0.558713     -0.061602      0.517602
  O       0.633665     -0.453512      1.634420
  O       1.625273      0.097954     -0.244498
  C       2.883485     -0.226917      0.302942
  H       3.613765     -0.028998     -0.475382
  H       3.093074      0.385184      1.177380
  H       2.918580     -1.275241      0.591335
  C      -2.229293      0.689507      1.928401
  H      -1.489940      0.320744      2.634878
  H      -2.834042      1.450638      2.425925
  H      -2.891360     -0.140966      1.670551
