23
Coordinates from ORCA-job 10 Relaxed Surface Scan Step 1
  C      -4.044452     -2.240173      0.644220
  H      -3.747034     -2.929686      1.434517
  H      -3.879822     -2.730424     -0.317345
  H      -5.114647     -2.049675      0.741107
  C      -3.266504     -0.924389      0.738132
  H      -3.588453     -0.264493     -0.067198
  C      -3.491418     -0.219687      2.078901
  H      -3.177913     -0.849735      2.911471
  H      -2.935826      0.718555      2.131965
  H      -4.549941      0.013454      2.205806
  C      -1.787974     -1.149164      0.483670
  O      -1.192304     -0.670920     -0.423290
  O      -1.245700     -1.939987      1.391648
  C       0.137912     -2.313495      1.382671
  H       0.202655     -2.952615      2.261273
  C       0.490120     -3.148520      0.160922
  H       1.488729     -3.570270      0.288532
  H      -0.213118     -3.975946      0.053560
  H       0.476212     -2.555102     -0.750319
  C       1.048445     -1.114355      1.599591
  H       0.727282     -0.550273      2.476702
  H       2.067069     -1.463242      1.778517
  H       1.053403     -0.451177      0.737741
23
Coordinates from ORCA-job 10 Relaxed Surface Scan Step 2
  C      -4.080424     -2.229849      0.654812
  H      -3.782362     -2.927312      1.438142
  H      -3.948281     -2.722138     -0.310530
  H      -5.143323     -2.014151      0.775612
  C      -3.268573     -0.933311      0.733117
  H      -3.587035     -0.266634     -0.068091
  C      -3.453834     -0.220882      2.075505
  H      -3.148053     -0.858471      2.904974
  H      -2.869970      0.700616      2.119964
  H      -4.503136      0.044190      2.215824
  C      -1.802636     -1.201570      0.449907
  O      -1.227146     -0.791568     -0.502341
  O      -1.247943     -1.950608      1.385587
  C       0.138371     -2.312961      1.382540
  H       0.200709     -2.973697      2.245127
  C       0.523711     -3.127456      0.155407
  H       1.511971     -3.563036      0.314527
  H      -0.182997     -3.945976      0.009000
  H       0.548434     -2.521172     -0.746141
  C       1.024065     -1.101794      1.626157
  H       0.699500     -0.569160      2.521352
  H       2.053917     -1.427908      1.781361
  H       1.001756     -0.416468      0.780983
23
Coordinates from ORCA-job 10 Relaxed Surface Scan Step 3
  C      -4.120238     -2.213533      0.657202
  H      -3.827662     -2.925833      1.429561
  H      -4.019507     -2.700519     -0.314449
  H      -5.174110     -1.969133      0.800174
  C      -3.269511     -0.941330      0.731085
  H      -3.578446     -0.261761     -0.063264
  C      -3.416955     -0.230163      2.078140
  H      -3.126301     -0.881602      2.902009
  H      -2.800859      0.670181      2.122217
  H      -4.455043      0.071085      2.228754
  C      -1.818985     -1.259042      0.420201
  O      -1.270302     -0.928031     -0.577488
  O      -1.247779     -1.959134      1.383759
  C       0.141150     -2.309055      1.384343
  H       0.208552     -2.984683      2.234957
  C       0.557510     -3.108878      0.156177
  H       1.536320     -3.554435      0.344542
  H      -0.149278     -3.920722     -0.023285
  H       0.615435     -2.494500     -0.737436
  C       1.002294     -1.084327      1.644132
  H       0.673489     -0.573258      2.550112
  H       2.041846     -1.386037      1.782255
  H       0.955102     -0.386608      0.809095
23
Coordinates from ORCA-job 10 Relaxed Surface Scan Step 4
  C      -4.167094     -2.181744      0.630376
  H      -3.895780     -2.929229      1.377497
  H      -4.091222     -2.639484     -0.357290
  H      -5.209712     -1.903057      0.791614
  C      -3.266739     -0.945725      0.737920
  H      -3.549696     -0.234727     -0.039032
  C      -3.386977     -0.264949      2.102140
  H      -3.129890     -0.949350      2.909995
  H      -2.730716      0.604737      2.173032
  H      -4.411084      0.079401      2.256437
  C      -1.835531     -1.323031      0.403068
  O      -1.325975     -1.095106     -0.642981
  O      -1.238597     -1.954632      1.397994
  C       0.152893     -2.291626      1.394335
  H       0.237565     -2.963404      2.246467
  C       0.585170     -3.102485      0.177167
  H       1.558572     -3.549695      0.389166
  H      -0.120590     -3.913888     -0.007317
  H       0.661288     -2.499393     -0.722178
  C       0.993291     -1.049481      1.634104
  H       0.668192     -0.537349      2.540644
  H       2.041407     -1.327303      1.756077
  H       0.917945     -0.359800      0.793560
23
Coordinates from ORCA-job 10 Relaxed Surface Scan Step 5
  C      -4.279067     -1.906282      0.293247
  H      -4.219103     -2.880215      0.785125
  H      -4.129839     -2.051856     -0.775554
  H      -5.284530     -1.513532      0.451478
  C      -3.235512     -0.938129      0.863528
  H      -3.316426      0.001096      0.307904
  C      -3.454359     -0.656638      2.347451
  H      -3.396346     -1.570900      2.938530
  H      -2.711710      0.038379      2.738690
  H      -4.441649     -0.216018      2.496996
  C      -1.844449     -1.442126      0.509089
  O      -1.472283     -1.528792     -0.614119
  O      -1.117701     -1.774002      1.557180
  C       0.272364     -2.108613      1.472776
  H       0.479028     -2.524696      2.456955
  C       0.577973     -3.226283      0.480628
  H       1.577693     -3.610454      0.694026
  H      -0.127918     -4.048292      0.608755
  H       0.538856     -2.894437     -0.552000
  C       1.100325     -0.853744      1.258644
  H       0.870395     -0.108973      2.021710
  H       2.162594     -1.093868      1.325662
  H       0.908386     -0.422943      0.276094
23
Coordinates from ORCA-job 10 Relaxed Surface Scan Step 6
  C      -4.281515     -1.336940      0.033224
  H      -4.555963     -2.391761      0.084581
  H      -3.954066     -1.131752     -0.984406
  H      -5.173606     -0.742285      0.236506
  C      -3.189743     -1.005018      1.045836
  H      -2.931402      0.056677      0.948552
  C      -3.637134     -1.252822      2.489939
  H      -3.854782     -2.310699      2.655244
  H      -2.874052     -0.947536      3.202599
  H      -4.548103     -0.690217      2.699123
  C      -1.896597     -1.729814      0.712105
  O      -1.725824     -2.363903     -0.274389
  O      -0.976419     -1.538454      1.641786
  C       0.406741     -1.860425      1.474376
  H       0.784075     -1.896482      2.494703
  C       0.679389     -3.248924      0.901390
  H       1.725251     -3.494094      1.098974
  H       0.061905     -3.997357      1.399123
  H       0.497455     -3.310742     -0.166468
  C       1.092942     -0.743923      0.707021
  H       0.913334      0.218287      1.187862
  H       2.169855     -0.916016      0.674149
  H       0.724980     -0.697117     -0.319037
23
Coordinates from ORCA-job 10 Relaxed Surface Scan Step 7
  C      -4.315733     -1.433460      0.058077
  H      -4.626404     -2.464339      0.236309
  H      -4.008319     -1.357923     -0.983179
  H      -5.180546     -0.786104      0.212257
  C      -3.185990     -1.031441      1.001831
  H      -2.890166      0.000594      0.772062
  C      -3.606044     -1.088798      2.473218
  H      -3.862096     -2.109543      2.766854
  H      -2.814072     -0.735737      3.129841
  H      -4.488072     -0.466783      2.632207
  C      -1.927271     -1.835525      0.719537
  O      -1.791191     -2.538910     -0.223818
  O      -0.996443     -1.624055      1.635357
  C       0.393450     -1.922916      1.479766
  H       0.747337     -2.067724      2.499059
  C       0.717693     -3.229120      0.759457
  H       1.768474     -3.457893      0.951346
  H       0.117944     -4.050098      1.150857
  H       0.559679     -3.174816     -0.312793
  C       1.079567     -0.715979      0.863450
  H       0.868155      0.183287      1.442655
  H       2.160143     -0.864947      0.839587
  H       0.736626     -0.559085     -0.161143
23
Coordinates from ORCA-job 10 Relaxed Surface Scan Step 8
  C      -4.418066     -1.601909      0.121565
  H      -4.730954     -2.581499      0.485427
  H      -4.171684     -1.707547     -0.933768
  H      -5.263143     -0.917334      0.212035
  C      -3.229935     -1.074837      0.920070
  H      -2.936914     -0.099317      0.517676
  C      -3.563259     -0.888483      2.404348
  H      -3.814382     -1.843951      2.871326
  H      -2.728726     -0.451614      2.948834
  H      -4.426266     -0.229934      2.512559
  C      -2.006291     -1.957467      0.725260
  O      -1.983841     -2.910322      0.023113
  O      -0.984647     -1.506221      1.429684
  C       0.380400     -1.950900      1.436637
  H       0.559498     -2.255181      2.468362
  C       0.731445     -3.127665      0.537324
  H       1.787251     -3.352937      0.702269
  H       0.148625     -4.013234      0.771756
  H       0.588321     -2.898494     -0.516774
  C       1.221267     -0.722177      1.134106
  H       0.960111      0.094617      1.806669
  H       2.281927     -0.946131      1.256578
  H       1.055984     -0.388782      0.107737
23
Coordinates from ORCA-job 10 Relaxed Surface Scan Step 9
  C      -4.238252     -1.682245      0.075285
  H      -4.546796     -2.667090      0.426320
  H      -3.808228     -1.796432     -0.921684
  H      -5.124827     -1.052283     -0.013583
  C      -3.236959     -1.054763      1.046524
  H      -2.909559     -0.088114      0.665184
  C      -3.846996     -0.846224      2.437605
  H      -4.164121     -1.797345      2.866007
  H      -3.129647     -0.387029      3.120803
  H      -4.714770     -0.187868      2.373612
  C      -2.008090     -1.936029      1.176098
  O      -2.054002     -3.070727      1.520431
  O      -0.886472     -1.302589      0.892926
  C       0.375881     -1.905935      1.203124
  H       0.296586     -2.251732      2.234002
  C       0.709127     -3.049313      0.261228
  H       1.699773     -3.440577      0.499144
  H      -0.011201     -3.857942      0.345151
  H       0.725138     -2.690789     -0.770253
  C       1.390930     -0.778933      1.138168
  H       1.109914      0.027871      1.815170
  H       2.378628     -1.142706      1.424200
  H       1.450662     -0.372523      0.127331
23
Coordinates from ORCA-job 10 Relaxed Surface Scan Step 10
  C      -4.205434     -1.808862      0.119707
  H      -4.519152     -2.751934      0.567433
  H      -3.749999     -2.027993     -0.848028
  H      -5.091771     -1.197818     -0.058638
  C      -3.230676     -1.071805      1.040276
  H      -2.901863     -0.151237      0.559012
  C      -3.870822     -0.724122      2.388361
  H      -4.183651     -1.628309      2.911387
  H      -3.173809     -0.182490      3.030888
  H      -4.746860     -0.091329      2.237525
  C      -1.998296     -1.923168      1.279050
  O      -2.033844     -3.019378      1.731184
  O      -0.879759     -1.307126      0.946679
  C       0.380588     -1.938535      1.190157
  H       0.315660     -2.429676      2.159668
  C       0.676918     -2.965884      0.111360
  H       1.651270     -3.423628      0.290522
  H      -0.073558     -3.753851      0.108724
  H       0.696615     -2.490989     -0.871620
  C       1.404764     -0.821533      1.250178
  H       1.142770     -0.103829      2.027877
  H       2.392777     -1.226607      1.473167
  H       1.454852     -0.291216      0.297927
23
Coordinates from ORCA-job 10 Relaxed Surface Scan Step 11
  C      -4.506230     -2.075673      0.481578
  H      -4.734497     -2.775239      1.285641
  H      -4.352357     -2.657859     -0.427066
  H      -5.371938     -1.428782      0.329818
  C      -3.277859     -1.237515      0.819243
  H      -3.058614     -0.559138     -0.008640
  C      -3.481132     -0.384791      2.078905
  H      -3.666783     -1.015885      2.951013
  H      -2.609001      0.235511      2.282131
  H      -4.343237      0.271378      1.951577
  C      -2.046514     -2.107767      0.982933
  O      -2.061560     -3.284667      1.123214
  O      -0.936818     -1.389842      0.971638
  C       0.325876     -2.022320      1.193613
  H       0.181036     -2.789093      1.952535
  C       0.823187     -2.664839     -0.089868
  H       1.795672     -3.130911      0.077620
  H       0.132352     -3.434127     -0.430223
  H       0.932404     -1.914311     -0.875244
  C       1.252459     -0.944541      1.722471
  H       0.851470     -0.510166      2.638567
  H       2.234781     -1.365044      1.942099
  H       1.374024     -0.145697      0.989239
23
Coordinates from ORCA-job 10 Relaxed Surface Scan Step 12
  C      -4.538184     -2.154489      0.634729
  H      -4.745205     -2.712687      1.548216
  H      -4.427600     -2.877012     -0.173153
  H      -5.400297     -1.522593      0.414818
  C      -3.286391     -1.297107      0.788900
  H      -3.097876     -0.762233     -0.146663
  C      -3.426044     -0.253757      1.904340
  H      -3.571099     -0.736177      2.873843
  H      -2.544436      0.382060      1.965927
  H      -4.292980      0.380918      1.715673
  C      -2.056826     -2.157674      1.012073
  O      -2.072246     -3.331052      1.177103
  O      -0.947978     -1.437769      0.998154
  C       0.322949     -2.068614      1.166836
  H       0.181664     -2.952361      1.784238
  C       0.855516     -2.494270     -0.190949
  H       1.832292     -2.968637     -0.082430
  H       0.181759     -3.211842     -0.658662
  H       0.961968     -1.631014     -0.850553
  C       1.213060     -1.069446      1.879514
  H       0.783251     -0.793139      2.842712
  H       2.200244     -1.499652      2.054163
  H       1.331180     -0.162772      1.283967
23
Coordinates from ORCA-job 10 Relaxed Surface Scan Step 13
  C      -4.565536     -2.194039      0.770377
  H      -4.743942     -2.636839      1.750789
  H      -4.494652     -3.008636      0.050633
  H      -5.427945     -1.578434      0.509295
  C      -3.298656     -1.344919      0.775417
  H      -3.140689     -0.928831     -0.224337
  C      -3.383993     -0.173728      1.761608
  H      -3.497602     -0.534294      2.786731
  H      -2.493768      0.450973      1.714680
  H      -4.250562      0.446958      1.529750
  C      -2.070977     -2.194271      1.048764
  O      -2.094154     -3.347450      1.319184
  O      -0.957654     -1.488323      0.942255
  C       0.320478     -2.105540      1.109699
  H       0.172355     -3.059457      1.607686
  C       0.921065     -2.350181     -0.263844
  H       1.903811     -2.815575     -0.171580
  H       0.284847     -3.016946     -0.846782
  H       1.032050     -1.411479     -0.809491
  C       1.152545     -1.183529      1.979910
  H       0.673782     -1.036344      2.948457
  H       2.141720     -1.612101      2.148004
  H       1.274199     -0.208332      1.505588
23
Coordinates from ORCA-job 10 Relaxed Surface Scan Step 14
  C      -4.579690     -2.206065      0.862900
  H      -4.734181     -2.583218      1.873941
  H      -4.532997     -3.066126      0.195180
  H      -5.445081     -1.602662      0.583627
  C      -3.308138     -1.368397      0.779844
  H      -3.171268     -1.014201     -0.245074
  C      -3.358525     -0.138528      1.695996
  H      -3.452864     -0.436041      2.742947
  H      -2.462080      0.470975      1.591021
  H      -4.222157      0.479179      1.445846
  C      -2.079925     -2.201331      1.094901
  O      -2.103498     -3.286856      1.568753
  O      -0.967138     -1.557886      0.781459
  C       0.316418     -2.141375      1.017612
  H       0.162442     -3.127831      1.444293
  C       1.021788     -2.265511     -0.320493
  H       2.010846     -2.707234     -0.188883
  H       0.450836     -2.903384     -0.996079
  H       1.139056     -1.286753     -0.788659
  C       1.053119     -1.262170      2.011689
  H       0.502694     -1.201197      2.951230
  H       2.041712     -1.673114      2.222592
  H       1.175353     -0.251591      1.618153
23
Coordinates from ORCA-job 10 Relaxed Surface Scan Step 15
  C      -4.580121     -2.217916      0.969632
  H      -4.699835     -2.518467      2.010401
  H      -4.556534     -3.125241      0.365731
  H      -5.454451     -1.635027      0.675014
  C      -3.311770     -1.392390      0.781863
  H      -3.206001     -1.114650     -0.268992
  C      -3.331420     -0.097760      1.606281
  H      -3.398580     -0.316964      2.674277
  H      -2.434678      0.496074      1.432157
  H      -4.197613      0.506748      1.333724
  C      -2.074780     -2.196792      1.132388
  O      -2.076016     -3.193284      1.773327
  O      -0.979188     -1.635860      0.647860
  C       0.310082     -2.182310      0.933935
  H       0.174600     -3.204026      1.277025
  C       1.099038     -2.164826     -0.361062
  H       2.095365     -2.580597     -0.203460
  H       0.595456     -2.760161     -1.123212
  H       1.204575     -1.145697     -0.736534
  C       0.947876     -1.365490      2.044427
  H       0.340049     -1.407608      2.948891
  H       1.937539     -1.757929      2.284067
  H       1.053128     -0.321147      1.745053
23
Coordinates from ORCA-job 10 Relaxed Surface Scan Step 16
  C      -4.575126     -2.226556      1.118660
  H      -4.645195     -2.400594      2.192376
  H      -4.576183     -3.199482      0.627097
  H      -5.464438     -1.681212      0.798148
  C      -3.320123     -1.431598      0.774675
  H      -3.264973     -1.282886     -0.306173
  C      -3.306743     -0.046838      1.436522
  H      -3.322760     -0.134900      2.525249
  H      -2.421941      0.520373      1.149970
  H      -4.187783      0.520995      1.134323
  C      -2.065259     -2.192795      1.156872
  O      -2.035691     -3.130059      1.881532
  O      -0.989258     -1.672802      0.591229
  C       0.303834     -2.210977      0.874505
  H       0.188763     -3.272281      1.081357
  C       1.139353     -2.008783     -0.374195
  H       2.140448     -2.417665     -0.230057
  H       0.681333     -2.512076     -1.226031
  H       1.229805     -0.947559     -0.611474
  C       0.876721     -1.527417      2.104586
  H       0.240282     -1.702402      2.971734
  H       1.868937     -1.922649      2.328694
  H       0.962717     -0.451154      1.943195
23
Coordinates from ORCA-job 10 Relaxed Surface Scan Step 17
  C      -4.565795     -2.215050      1.289072
  H      -4.585414     -2.223419      2.379217
  H      -4.580828     -3.251244      0.952802
  H      -5.473241     -1.725071      0.932216
  C      -3.334922     -1.479859      0.769419
  H      -3.336126     -1.501090     -0.324247
  C      -3.302461     -0.010563      1.208887
  H      -3.256397      0.070150      2.297486
  H      -2.443222      0.510226      0.789517
  H      -4.207456      0.499076      0.875445
  C      -2.058292     -2.187302      1.183351
  O      -2.004018     -3.107921      1.927882
  O      -0.994740     -1.656676      0.604590
  C       0.299464     -2.217238      0.837689
  H       0.187745     -3.299737      0.862149
  C       1.153147     -1.817008     -0.350279
  H       2.152980     -2.243358     -0.258068
  H       0.709027     -2.176874     -1.278609
  H       1.244290     -0.731439     -0.412708
  C       0.854246     -1.731464      2.165697
  H       0.216688     -2.045355      2.990217
  H       1.849858     -2.147654      2.328597
  H       0.932189     -0.642448      2.172471
23
Coordinates from ORCA-job 10 Relaxed Surface Scan Step 18
  C      -4.550827     -2.169402      1.467411
  H      -4.523220     -1.988361      2.542960
  H      -4.569583     -3.247374      1.316299
  H      -5.477660     -1.748697      1.074049
  C      -3.350992     -1.531885      0.773784
  H      -3.405029     -1.752041     -0.298895
  C      -3.317753     -0.009321      0.942206
  H      -3.215060      0.265118      1.994809
  H      -2.490844      0.434932      0.392057
  H      -4.248096      0.426194      0.575100
  C      -2.053258     -2.179386      1.222596
  O      -1.983420     -3.114852      1.947168
  O      -0.995842     -1.603254      0.677956
  C       0.296620     -2.201621      0.816474
  H       0.168350     -3.268347      0.634627
  C       1.149587     -1.603181     -0.286276
  H       2.144152     -2.051156     -0.279860
  H       0.696043     -1.783169     -1.261120
  H       1.254972     -0.525539     -0.151260
  C       0.868410     -1.964910      2.203353
  H       0.245269     -2.422542      2.967639
  H       1.867830     -2.398408      2.269175
  H       0.947071     -0.894116      2.402542
23
Coordinates from ORCA-job 10 Relaxed Surface Scan Step 19
  C      -4.535636     -2.092663      1.622107
  H      -4.477711     -1.724940      2.648343
  H      -4.548087     -3.179922      1.661094
  H      -5.477663     -1.749169      1.191806
  C      -3.362229     -1.580850      0.790776
  H      -3.451206     -1.994124     -0.223620
  C      -3.340762     -0.054269      0.684958
  H      -3.199230      0.403985      1.666527
  H      -2.542253      0.291565      0.032486
  H      -4.290807      0.303328      0.285407
  C      -2.049223     -2.162731      1.285828
  O      -1.970389     -3.104301      2.001246
  O      -0.996555     -1.546061      0.777585
  C       0.292382     -2.172593      0.802851
  H       0.136190     -3.182257      0.420712
  C       1.138319     -1.397760     -0.190987
  H       2.124331     -1.854770     -0.284522
  H       0.665705     -1.391088     -1.173237
  H       1.265873     -0.364259      0.134965
  C       0.897434     -2.194069      2.195272
  H       0.298112     -2.785903      2.880425
  H       1.900476     -2.621981      2.149661
  H       0.979652     -1.176486      2.583112
23
Coordinates from ORCA-job 10 Relaxed Surface Scan Step 20
  C      -4.530364     -2.011398      1.725456
  H      -4.476064     -1.487962      2.682218
  H      -4.528307     -3.079517      1.931237
  H      -5.477354     -1.749818      1.250862
  C      -3.363904     -1.619075      0.821580
  H      -3.450909     -2.189589     -0.115683
  C      -3.363154     -0.128089      0.480671
  H      -3.221365      0.478599      1.377871
  H      -2.573456      0.123564     -0.223413
  H      -4.320456      0.151242      0.038263
  C      -2.044337     -2.117680      1.387191
  O      -1.963389     -3.011251      2.160425
  O      -0.995736     -1.500117      0.868748
  C       0.286317     -2.141137      0.787070
  H       0.097981     -3.068113      0.241542
  C       1.127111     -1.231527     -0.090970
  H       2.101556     -1.683645     -0.279829
  H       0.634257     -1.058976     -1.047624
  H       1.281666     -0.266440      0.394119
  C       0.929256     -2.394230      2.139259
  H       0.358228     -3.099462      2.733210
  H       1.935123     -2.790159      1.988117
  H       1.014020     -1.456537      2.692474
23
Coordinates from ORCA-job 10 Relaxed Surface Scan Step 21
  C      -4.521255     -1.928217      1.821373
  H      -4.476608     -1.267027      2.689189
  H      -4.498540     -2.953382      2.184404
  H      -5.473334     -1.758585      1.316070
  C      -3.362968     -1.652664      0.865355
  H      -3.439378     -2.358196      0.023792
  C      -3.393715     -0.229604      0.305374
  H      -3.260249      0.506982      1.100850
  H      -2.612362     -0.070594     -0.434047
  H      -4.358352     -0.038061     -0.166891
  C      -2.032508     -2.034855      1.494908
  O      -1.939681     -2.783081      2.407078
  O      -0.998000     -1.484888      0.877803
  C       0.287519     -2.113479      0.738258
  H       0.106927     -2.940925      0.047735
  C       1.145118     -1.082933      0.025416
  H       2.116237     -1.509429     -0.228741
  H       0.661415     -0.750483     -0.892699
  H       1.304827     -0.212388      0.663682
  C       0.920160     -2.586104      2.036003
  H       0.370095     -3.400381      2.493523
  H       1.937681     -2.919628      1.823379
  H       0.973690     -1.763393      2.750981
23
Coordinates from ORCA-job 10 Relaxed Surface Scan Step 22
  C      -3.966408     -2.397624      1.270905
  H      -3.962429     -2.343680      2.362226
  H      -3.512089     -3.340788      0.973273
  H      -5.006607     -2.399480      0.942382
  C      -3.225697     -1.201979      0.660879
  H      -3.219687     -1.330706     -0.426386
  C      -3.889377      0.128314      1.001628
  H      -3.896482      0.297821      2.078924
  H      -3.363449      0.963823      0.541634
  H      -4.921289      0.133533      0.646704
  C      -1.760953     -1.202103      1.062020
  O      -1.217403     -0.305530      1.615264
  O      -1.162837     -2.323965      0.704869
  C       0.241070     -2.552483      0.869624
  H       0.333326     -3.610873      0.633906
  C       1.035690     -1.738363     -0.137352
  H       2.087526     -2.026065     -0.098495
  H       0.669872     -1.922518     -1.148385
  H       0.962922     -0.672493      0.074919
  C       0.713918     -2.387851      2.309087
  H       0.049135     -2.923648      2.988671
  H       1.709034     -2.827536      2.400902
  H       0.758937     -1.347124      2.615597
23
Coordinates from ORCA-job 10 Relaxed Surface Scan Step 23
  C      -3.946166     -2.372218      1.386558
  H      -3.899360     -2.233870      2.469398
  H      -3.498838     -3.334613      1.144066
  H      -4.998490     -2.402009      1.100601
  C      -3.235619     -1.225556      0.656715
  H      -3.271565     -1.439622     -0.415562
  C      -3.890635      0.125888      0.921751
  H      -3.859037      0.375052      1.982842
  H      -3.384278      0.925347      0.381982
  H      -4.934572      0.104712      0.604423
  C      -1.759089     -1.198230      1.009761
  O      -1.211299     -0.289209      1.538133
  O      -1.157409     -2.317066      0.649506
  C       0.245866     -2.544966      0.827013
  H       0.349590     -3.578442      0.501996
  C       1.067525     -1.655233     -0.091516
  H       2.113387     -1.965510     -0.059997
  H       0.718098     -1.748679     -1.120842
  H       1.007112     -0.610447      0.207425
  C       0.666447     -2.485598      2.289195
  H       0.004814     -3.105378      2.896685
  H       1.678294     -2.884299      2.383545
  H       0.651945     -1.471373      2.679116
23
Coordinates from ORCA-job 10 Relaxed Surface Scan Step 24
  C      -3.922153     -2.336740      1.499653
  H      -3.839729     -2.111388      2.565547
  H      -3.476076     -3.313634      1.319324
  H      -4.983146     -2.394987      1.252771
  C      -3.244453     -1.249211      0.655851
  H      -3.317155     -1.548796     -0.392961
  C      -3.895796      0.117378      0.839170
  H      -3.827278      0.447660      1.875871
  H      -3.412662      0.873817      0.221167
  H      -4.950102      0.070349      0.561280
  C      -1.759080     -1.195846      0.964515
  O      -1.211095     -0.277083      1.475757
  O      -1.151885     -2.308781      0.595798
  C       0.250098     -2.536623      0.785454
  H       0.371820     -3.536247      0.372692
  C       1.095358     -1.576948     -0.038318
  H       2.135071     -1.908830     -0.022400
  H       0.759251     -1.574081     -1.076416
  H       1.047337     -0.561956      0.349230
  C       0.622266     -2.584088      2.259735
  H      -0.032472     -3.275773      2.792313
  H       1.647118     -2.945617      2.361243
  H       0.551484     -1.603894      2.725518
