25
Coordinates from ORCA-job 12 Relaxed Surface Scan Step 1
  C      -2.994152      2.899378     -0.067627
  H      -2.628388      3.196175      0.920312
  H      -2.158189      2.944135     -0.771402
  H      -3.735092      3.633091     -0.380583
  O      -3.619447      1.663739     -0.052298
  C      -2.876003      0.494877      0.194853
  H      -3.637573     -0.283713      0.187991
  C      -1.924568      0.172172     -0.953871
  H      -1.100900      0.880169     -1.040371
  H      -1.488602     -0.816003     -0.814298
  H      -2.482910      0.184435     -1.891080
  C      -2.253895      0.471464      1.604012
  H      -2.262523     -0.558247      1.966605
  H      -2.928239      1.032353      2.253636
  C      -0.818722      0.966807      1.794064
  H      -0.636161      1.860110      1.186975
  O       0.032084     -0.055659      1.346684
  C      -0.544684      1.308376      3.255399
  H      -0.740002      0.440490      3.887999
  H       0.490628      1.613718      3.409949
  H      -1.184014      2.128352      3.586706
  C       1.326359      0.296004      0.998203
  H       1.906970      0.660944      1.850210
  H       1.818380     -0.593453      0.609179
  H       1.340574      1.066927      0.219641
25
Coordinates from ORCA-job 12 Relaxed Surface Scan Step 2
  C      -2.726140      2.916896     -0.211503
  H      -2.407632      3.336604      0.747193
  H      -1.838505      2.753136     -0.827839
  H      -3.345085      3.662430     -0.708857
  O      -3.497787      1.776472     -0.056884
  C      -2.920367      0.525997      0.239789
  H      -3.801071     -0.110499      0.323506
  C      -2.078122     -0.003095     -0.914714
  H      -1.179173      0.585130     -1.088816
  H      -1.757615     -1.024313     -0.710912
  H      -2.677734      0.003886     -1.826288
  C      -2.273033      0.459205      1.633390
  H      -2.249452     -0.592723      1.929524
  H      -2.958519      0.963622      2.317908
  C      -0.859883      0.993566      1.866671
  H      -0.750435      1.990095      1.429093
  O       0.035316      0.116670      1.236262
  C      -0.562203      1.094437      3.360216
  H      -0.686096      0.120218      3.836635
  H       0.458309      1.432527      3.542888
  H      -1.236864      1.803756      3.842378
  C       1.289386      0.608400      0.911064
  H       1.874028      0.885982      1.792802
  H       1.826635     -0.176150      0.381517
  H       1.222972      1.484391      0.255863
25
Coordinates from ORCA-job 12 Relaxed Surface Scan Step 3
  C      -2.402907      2.759022     -0.671018
  H      -1.334794      2.688830     -0.451582
  H      -2.552273      2.494856     -1.721046
  H      -2.708758      3.795890     -0.539034
  O      -3.183925      1.995519      0.185380
  C      -2.950867      0.616524      0.360745
  H      -3.946610      0.173600      0.433923
  C      -2.282394     -0.070813     -0.827084
  H      -1.274571      0.284957     -1.018514
  H      -2.216471     -1.140463     -0.624763
  H      -2.886266      0.060634     -1.726840
  C      -2.293625      0.366429      1.723590
  H      -2.203475     -0.712480      1.880041
  H      -2.991648      0.738333      2.476214
  C      -0.941320      1.011916      2.002816
  H      -1.016243      2.085362      1.796693
  O       0.004787      0.447990      1.133902
  C      -0.541807      0.827285      3.464349
  H      -0.445904     -0.234324      3.700870
  H       0.408912      1.311885      3.688589
  H      -1.293911      1.262406      4.123786
  C       1.230638      1.084423      1.014207
  H       1.851532      0.971441      1.906985
  H       1.759016      0.632325      0.176499
  H       1.113813      2.155095      0.812181
25
Coordinates from ORCA-job 12 Relaxed Surface Scan Step 4
  C      -2.123722      2.642725     -0.779915
  H      -1.080447      2.394850     -0.584291
  H      -2.355711      2.363669     -1.811222
  H      -2.246915      3.721290     -0.690632
  O      -2.995353      2.061292      0.132729
  C      -2.985966      0.674217      0.381137
  H      -4.038800      0.442577      0.550420
  C      -2.502378     -0.179965     -0.784058
  H      -1.441179     -0.049237     -0.982483
  H      -2.668817     -1.231526     -0.545872
  H      -3.069055      0.046517     -1.688693
  C      -2.299970      0.365747      1.726345
  H      -2.155672     -0.714354      1.806033
  H      -2.995501      0.649917      2.518691
  C      -0.980504      1.055081      2.044777
  H      -1.147788      2.138523      2.025688
  O      -0.047777      0.710816      1.054765
  C      -0.493170      0.669856      3.439618
  H      -0.274630     -0.398990      3.485414
  H       0.409548      1.213892      3.719175
  H      -1.255133      0.899334      4.185642
  C       1.159174      1.394138      1.040267
  H       1.817336      1.097736      1.861243
  H       1.662003      1.160053      0.103347
  H       1.011356      2.478483      1.092761
25
Coordinates from ORCA-job 12 Relaxed Surface Scan Step 5
  C      -2.495358      2.786819     -1.039127
  H      -2.529279      2.315473     -2.025585
  H      -3.517538      3.065157     -0.758306
  H      -1.902096      3.696185     -1.119288
  O      -1.905128      1.979018     -0.081207
  C      -2.565030      0.779209      0.237762
  H      -3.635144      1.011940      0.262566
  C      -2.273197     -0.308498     -0.784056
  H      -1.210300     -0.547568     -0.768060
  H      -2.838206     -1.212450     -0.548854
  H      -2.549308      0.000478     -1.793189
  C      -2.181531      0.369202      1.678625
  H      -2.104577     -0.716569      1.736035
  H      -2.983251      0.663904      2.359434
  C      -0.883065      0.949267      2.222681
  H      -0.967101      2.038501      2.217077
  O       0.170167      0.538337      1.394703
  C      -0.624063      0.491615      3.654447
  H      -0.553053     -0.596498      3.701091
  H       0.314967      0.905064      4.026107
  H      -1.421614      0.817535      4.325259
  C       1.175076      1.463297      1.156812
  H       1.655494      1.798911      2.082472
  H       1.932101      0.981555      0.539771
  H       0.791962      2.336753      0.623717
25
Coordinates from ORCA-job 12 Relaxed Surface Scan Step 6
  C      -2.315535      2.730431     -1.063523
  H      -2.562976      2.288254     -2.032715
  H      -3.227765      3.172046     -0.646249
  H      -1.593187      3.527511     -1.230851
  O      -1.744361      1.818971     -0.190670
  C      -2.551220      0.755048      0.236881
  H      -3.557814      1.154646      0.410086
  C      -2.633792     -0.336183     -0.822811
  H      -1.633640     -0.721036     -1.027513
  H      -3.258749     -1.160503     -0.473645
  H      -3.062038      0.031928     -1.756083
  C      -2.029054      0.199033      1.583825
  H      -1.705942     -0.835439      1.456419
  H      -2.856870      0.179713      2.295810
  C      -0.854386      0.941003      2.210848
  H      -1.041125      2.015978      2.163145
  O       0.290510      0.627448      1.465934
  C      -0.647707      0.538024      3.667113
  H      -0.503833     -0.541008      3.748335
  H       0.237321      1.025516      4.079021
  H      -1.504213      0.821763      4.282183
  C       1.215236      1.641886      1.281455
  H       1.602219      2.028814      2.230998
  H       2.052438      1.231020      0.719154
  H       0.787412      2.471777      0.713739
25
Coordinates from ORCA-job 12 Relaxed Surface Scan Step 7
  C      -2.190043      2.646876     -1.141038
  H      -2.569201      2.223119     -2.075035
  H      -3.008378      3.189304     -0.653745
  H      -1.404180      3.358465     -1.387891
  O      -1.643311      1.688398     -0.303143
  C      -2.518360      0.746044      0.246102
  H      -3.435147      1.258794      0.569795
  C      -2.928421     -0.305651     -0.781015
  H      -2.040132     -0.793703     -1.185468
  H      -3.559077     -1.065398     -0.314969
  H      -3.491688      0.126630     -1.609057
  C      -1.874533      0.083387      1.474142
  H      -1.403683     -0.859076      1.185629
  H      -2.677355     -0.174071      2.168834
  C      -0.812834      0.915558      2.191729
  H      -1.077975      1.973751      2.119382
  O       0.407274      0.704285      1.534916
  C      -0.677733      0.530597      3.660652
  H      -0.454789     -0.533920      3.755082
  H       0.133956      1.086156      4.132975
  H      -1.596720      0.742951      4.211136
  C       1.247707      1.797010      1.408322
  H       1.531570      2.218870      2.379339
  H       2.155352      1.462849      0.908018
  H       0.788631      2.585414      0.806192
25
Coordinates from ORCA-job 12 Relaxed Surface Scan Step 8
  C      -2.094990      2.572206     -1.221245
  H      -2.571116      2.165731     -2.117845
  H      -2.829766      3.191391     -0.693805
  H      -1.270754      3.209464     -1.536411
  O      -1.575062      1.585458     -0.399224
  C      -2.484743      0.743362      0.245765
  H      -3.304046      1.349397      0.659843
  C      -3.102622     -0.268150     -0.715832
  H      -2.316506     -0.845455     -1.205417
  H      -3.753293     -0.958306     -0.175454
  H      -3.704463      0.214498     -1.486805
  C      -1.785490      0.034168      1.406668
  H      -1.245256     -0.841267      1.040088
  H      -2.565291     -0.337476      2.075778
  C      -0.791196      0.894564      2.187518
  H      -1.113929      1.939570      2.141418
  O       0.462317      0.774616      1.573125
  C      -0.683832      0.471917      3.648216
  H      -0.402103     -0.580555      3.717034
  H       0.078204      1.057587      4.164880
  H      -1.631681      0.612608      4.172122
  C       1.228216      1.923729      1.480651
  H       1.448166      2.357694      2.462970
  H       2.173481      1.657067      1.010537
  H       0.736684      2.682826      0.866310
25
Coordinates from ORCA-job 12 Relaxed Surface Scan Step 9
  C      -2.006123      2.497908     -1.304929
  H      -2.564172      2.110639     -2.162034
  H      -2.657002      3.188666     -0.756408
  H      -1.152257      3.056992     -1.683231
  O      -1.521786      1.492089     -0.484493
  C      -2.456064      0.748254      0.241683
  H      -3.178770      1.439667      0.699751
  C      -3.226036     -0.223749     -0.647402
  H      -2.532042     -0.890014     -1.162709
  H      -3.908576     -0.830162     -0.049404
  H      -3.821906      0.295811     -1.398590
  C      -1.732722      0.012851      1.366390
  H      -1.151007     -0.814657      0.955388
  H      -2.497672     -0.423661      2.013111
  C      -0.781479      0.876489      2.196690
  H      -1.154998      1.906398      2.203740
  O       0.483387      0.846865      1.595876
  C      -0.666496      0.388123      3.636177
  H      -0.335185     -0.651876      3.655638
  H       0.063346      0.983124      4.187527
  H      -1.623868      0.457475      4.157011
  C       1.176673      2.042586      1.530243
  H       1.356887      2.474062      2.521819
  H       2.142227      1.843133      1.068245
  H       0.646569      2.779628      0.920796
25
Coordinates from ORCA-job 12 Relaxed Surface Scan Step 10
  C      -1.911664      2.415480     -1.396301
  H      -2.544609      2.052525     -2.211138
  H      -2.471405      3.178196     -0.842405
  H      -1.033213      2.884950     -1.835278
  O      -1.474380      1.397590     -0.564804
  C      -2.428769      0.762877      0.235975
  H      -3.056645      1.535377      0.703629
  C      -3.325028     -0.167195     -0.576031
  H      -2.721893     -0.923446     -1.081587
  H      -4.041918     -0.672912      0.072974
  H      -3.893627      0.375510     -1.331804
  C      -1.702917      0.008190      1.344696
  H      -1.098992     -0.789273      0.906859
  H      -2.463172     -0.464284      1.971254
  C      -0.778616      0.858003      2.218234
  H      -1.200757      1.866290      2.299915
  O       0.481941      0.926150      1.612322
  C      -0.626202      0.283203      3.621850
  H      -0.246994     -0.739154      3.570415
  H       0.082526      0.875027      4.203332
  H      -1.579449      0.273918      4.154523
  C       1.096188      2.164952      1.571135
  H       1.251578      2.585486      2.571664
  H       2.070660      2.038703      1.102239
  H       0.518284      2.880476      0.979216
25
Coordinates from ORCA-job 12 Relaxed Surface Scan Step 11
  C      -1.780381      2.322115     -1.480988
  H      -2.490227      1.998889     -2.247818
  H      -2.225837      3.163080     -0.936576
  H      -0.880905      2.675289     -1.982002
  O      -1.411228      1.296862     -0.626160
  C      -2.388366      0.792978      0.239712
  H      -2.916451      1.644347      0.692719
  C      -3.400344     -0.078300     -0.498676
  H      -2.895128     -0.924724     -0.967480
  H      -4.153536     -0.463024      0.190828
  H      -3.922783      0.478473     -1.276934
  C      -1.689636      0.012814      1.348636
  H      -1.086064     -0.778520      0.898545
  H      -2.463636     -0.466055      1.952996
  C      -0.778522      0.826105      2.269246
  H      -1.246540      1.800114      2.454685
  O       0.468127      1.009903      1.658754
  C      -0.564034      0.136018      3.611129
  H      -0.129509     -0.853834      3.460023
  H       0.125745      0.714442      4.227657
  H      -1.502075      0.024246      4.158736
  C       0.947136      2.304187      1.564040
  H       1.068964      2.772445      2.548057
  H       1.923845      2.263561      1.084748
  H       0.292316      2.935228      0.957008
25
Coordinates from ORCA-job 12 Relaxed Surface Scan Step 12
  C      -1.639453      2.199287     -1.577571
  H      -2.380559      1.888576     -2.319441
  H      -2.012245      3.102942     -1.081033
  H      -0.720711      2.451345     -2.104064
  O      -1.341359      1.199360     -0.666720
  C      -2.332644      0.842417      0.254957
  H      -2.749778      1.763532      0.686773
  C      -3.460989      0.058121     -0.409750
  H      -3.072059     -0.864804     -0.844201
  H      -4.231436     -0.199858      0.318543
  H      -3.940147      0.631125     -1.203778
  C      -1.676300      0.028105      1.366831
  H      -1.087409     -0.768448      0.906082
  H      -2.472059     -0.444747      1.947130
  C      -0.771547      0.787756      2.338414
  H      -1.282448      1.708933      2.644488
  O       0.453160      1.104499      1.738648
  C      -0.481610     -0.033016      3.588656
  H       0.015219     -0.966580      3.318799
  H       0.182674      0.520328      4.253689
  H      -1.396941     -0.270982      4.133988
  C       0.750127      2.442481      1.546986
  H       0.804810      2.988574      2.496282
  H       1.724517      2.500454      1.064851
  H       0.020118      2.937241      0.902327
25
Coordinates from ORCA-job 12 Relaxed Surface Scan Step 13
  C      -1.540563      2.070973     -1.667306
  H      -2.312946      1.777817     -2.383999
  H      -1.841723      3.021670     -1.211775
  H      -0.614525      2.232202     -2.216198
  O      -1.299065      1.097065     -0.712512
  C      -2.282810      0.877368      0.260537
  H      -2.583546      1.852898      0.668038
  C      -3.512271      0.191515     -0.328846
  H      -3.241052     -0.786345     -0.731681
  H      -4.276691      0.050338      0.436863
  H      -3.957951      0.777867     -1.132555
  C      -1.656865      0.033573      1.370230
  H      -1.068100     -0.754029      0.894320
  H      -2.462649     -0.448199      1.928792
  C      -0.767226      0.758460      2.381308
  H      -1.319617      1.621400      2.774989
  O       0.429956      1.191603      1.799558
  C      -0.407073     -0.148006      3.550721
  H       0.147174     -1.018056      3.194698
  H       0.227526      0.388475      4.256938
  H      -1.297448     -0.494618      4.078579
  C       0.587701      2.547870      1.573129
  H       0.553008      3.122215      2.506413
  H       1.565422      2.696323      1.117988
  H      -0.167734      2.946263      0.892659
25
Coordinates from ORCA-job 12 Relaxed Surface Scan Step 14
  C      -1.497585      1.966410     -1.746972
  H      -2.324504      1.719549     -2.418999
  H      -1.698735      2.950157     -1.306900
  H      -0.588631      2.037115     -2.341602
  O      -1.290735      1.000779     -0.775969
  C      -2.239946      0.889660      0.250205
  H      -2.432560      1.900953      0.633514
  C      -3.550567      0.296047     -0.257212
  H      -3.383254     -0.711833     -0.642477
  H      -4.282548      0.240335      0.550191
  H      -3.987067      0.896892     -1.055316
  C      -1.618830      0.023473      1.348381
  H      -0.997070     -0.725541      0.852445
  H      -2.417109     -0.503554      1.875709
  C      -0.768968      0.737877      2.398716
  H      -1.364461      1.552490      2.832067
  O       0.409291      1.255362      1.846285
  C      -0.368024     -0.206408      3.523340
  H       0.231911     -1.027687      3.127862
  H       0.234254      0.325316      4.260650
  H      -1.242410     -0.624432      4.025469
  C       0.488343      2.619904      1.628389
  H       0.358368      3.187925      2.556939
  H       1.479895      2.834589      1.233642
  H      -0.248131      2.971262      0.902530
25
Coordinates from ORCA-job 12 Relaxed Surface Scan Step 15
  C      -1.327676      1.737789     -1.806424
  H      -2.271940      2.101556     -2.227799
  H      -0.859235      2.553358     -1.247847
  H      -0.672718      1.464570     -2.632179
  O      -1.501727      0.616352     -1.014303
  C      -2.354695      0.745746      0.091583
  H      -2.434803      1.807172      0.348426
  C      -3.737887      0.218211     -0.269596
  H      -3.684765     -0.846593     -0.504294
  H      -4.441241      0.357186      0.554329
  H      -4.134445      0.736063     -1.144394
  C      -1.727753     -0.007483      1.269339
  H      -1.078066     -0.777700      0.849759
  H      -2.501937     -0.512926      1.851213
  C      -0.927528      0.867910      2.226697
  H      -1.624538      1.570261      2.707445
  O      -0.000747      1.599776      1.476248
  C      -0.250394      0.038040      3.312255
  H       0.476763     -0.641611      2.864687
  H       0.269974      0.664578      4.037416
  H      -0.987066     -0.553597      3.858480
  C       0.549400      2.727204      2.064320
  H       1.193884      2.487414      2.914756
  H       1.155362      3.230725      1.313320
  H      -0.225293      3.422639      2.407451
25
Coordinates from ORCA-job 12 Relaxed Surface Scan Step 16
  C      -1.381808      1.621492     -1.961492
  H      -2.344592      1.992546     -2.330411
  H      -0.853015      2.449894     -1.479852
  H      -0.796854      1.290512     -2.818017
  O      -1.523716      0.544497     -1.103199
  C      -2.278990      0.757541      0.060492
  H      -2.247103      1.824710      0.299630
  C      -3.726672      0.348220     -0.181260
  H      -3.782236     -0.716223     -0.416808
  H      -4.340307      0.540236      0.701788
  H      -4.157102      0.901732     -1.017390
  C      -1.624735     -0.028044      1.206187
  H      -0.901474     -0.710626      0.758540
  H      -2.366534     -0.634984      1.729953
  C      -0.915602      0.843357      2.235268
  H      -1.662028      1.502544      2.702461
  O       0.016803      1.632496      1.551412
  C      -0.256898      0.006714      3.326378
  H       0.508484     -0.639223      2.892869
  H       0.214674      0.630880      4.086195
  H      -0.995801     -0.620291      3.828282
  C       0.478265      2.774158      2.186605
  H       1.082037      2.549591      3.070513
  H       1.102884      3.317371      1.479879
  H      -0.346750      3.427541      2.492861
25
Coordinates from ORCA-job 12 Relaxed Surface Scan Step 17
  C      -1.516881      1.471011     -2.175798
  H      -2.519238      1.794498     -2.475545
  H      -0.963247      2.347834     -1.823828
  H      -1.012312      1.075537     -3.055615
  O      -1.544743      0.470719     -1.218263
  C      -2.157728      0.781189      0.003828
  H      -2.011071      1.843663      0.216113
  C      -3.655959      0.506095     -0.066926
  H      -3.834367     -0.546982     -0.292017
  H      -4.137999      0.743029      0.884374
  H      -4.137143      1.104658     -0.841976
  C      -1.465956     -0.028506      1.112878
  H      -0.649371     -0.587004      0.658292
  H      -2.155358     -0.758659      1.542446
  C      -0.892895      0.824759      2.238877
  H      -1.694278      1.447497      2.660714
  O       0.072581      1.665565      1.670328
  C      -0.304670     -0.031746      3.354240
  H       0.498935     -0.657979      2.963030
  H       0.102790      0.579884      4.159922
  H      -1.069413     -0.679299      3.786422
  C       0.410966      2.815182      2.365678
  H       0.908579      2.601745      3.316126
  H       1.098005      3.387844      1.745417
  H      -0.468297      3.436108      2.572170
25
Coordinates from ORCA-job 12 Relaxed Surface Scan Step 18
  C      -1.668371      1.279696     -2.363200
  H      -2.700791      1.559339     -2.595492
  H      -1.103880      2.194834     -2.154147
  H      -1.240511      0.805202     -3.244497
  O      -1.582520      0.378476     -1.314480
  C      -2.029288      0.815257     -0.061633
  H      -1.756724      1.863704      0.084032
  C      -3.546648      0.696098      0.049565
  H      -3.855871     -0.335103     -0.130672
  H      -3.885085      0.989163      1.045861
  H      -4.057686      1.335321     -0.671889
  C      -1.305752     -0.002678      1.016094
  H      -0.407766     -0.428419      0.573583
  H      -1.929832     -0.838898      1.339876
  C      -0.876452      0.813170      2.232063
  H      -1.730123      1.386935      2.616444
  O       0.099314      1.718648      1.791881
  C      -0.346662     -0.077819      3.349735
  H       0.502208     -0.663607      2.992912
  H      -0.017997      0.507235      4.209300
  H      -1.121250     -0.764968      3.694285
  C       0.314167      2.851562      2.560052
  H       0.714028      2.619019      3.551329
  H       1.040786      3.472519      2.039346
  H      -0.606364      3.431955      2.690540
25
Coordinates from ORCA-job 12 Relaxed Surface Scan Step 19
  C      -1.764627      1.058927     -2.477643
  H      -2.782622      1.419289     -2.655386
  H      -1.101007      1.927684     -2.407827
  H      -1.462394      0.463080     -3.337042
  O      -1.671650      0.255561     -1.352666
  C      -1.934739      0.855487     -0.114719
  H      -1.510068      1.862577     -0.093367
  C      -3.437732      0.951405      0.134154
  H      -3.891227     -0.039887      0.076235
  H      -3.647572      1.371027      1.119607
  H      -3.927121      1.590939     -0.601785
  C      -1.213088      0.029704      0.950653
  H      -0.276488     -0.320949      0.519394
  H      -1.803668     -0.857039      1.194024
  C      -0.874874      0.787866      2.230109
  H      -1.777766      1.257118      2.640397
  O       0.032012      1.800446      1.883087
  C      -0.290869     -0.140819      3.289403
  H       0.612649     -0.621701      2.910838
  H      -0.031491      0.400255      4.199949
  H      -1.009179     -0.916726      3.559270
  C       0.137631      2.884892      2.739321
  H       0.531381      2.608932      3.721790
  H       0.824491      3.598404      2.287828
  H      -0.829051      3.380169      2.885262
25
Coordinates from ORCA-job 12 Relaxed Surface Scan Step 20
  C      -1.833977      0.823170     -2.545513
  H      -2.739539      1.420768     -2.690519
  H      -0.968891      1.490974     -2.621338
  H      -1.777698      0.094207     -3.352159
  O      -1.839472      0.129171     -1.346765
  C      -1.858795      0.890763     -0.168321
  H      -1.269991      1.800778     -0.306714
  C      -3.287887      1.279885      0.194839
  H      -3.888221      0.389076      0.390721
  H      -3.312777      1.918840      1.078527
  H      -3.761645      1.831969     -0.617818
  C      -1.166397      0.044397      0.896830
  H      -0.214185     -0.286291      0.480106
  H      -1.762052     -0.854410      1.075378
  C      -0.896580      0.741759      2.225490
  H      -1.846851      1.038634      2.685678
  O      -0.152604      1.897957      1.949959
  C      -0.164625     -0.181949      3.193805
  H       0.805547     -0.466077      2.782747
  H       0.001249      0.294924      4.160436
  H      -0.745088     -1.089023      3.369578
  C      -0.116517      2.884626      2.922776
  H       0.418391      2.568726      3.822803
  H       0.403819      3.744172      2.504234
  H      -1.124285      3.199595      3.216127
25
Coordinates from ORCA-job 12 Relaxed Surface Scan Step 21
  C      -1.980747      0.632960     -2.579420
  H      -2.786454      1.363451     -2.703960
  H      -1.031577      1.130558     -2.807594
  H      -2.133216     -0.165170     -3.304021
  O      -1.968127      0.063287     -1.317374
  C      -1.752524      0.926066     -0.226963
  H      -1.066387      1.716274     -0.545045
  C      -3.066232      1.552059      0.224400
  H      -3.748944      0.785409      0.597179
  H      -2.900515      2.289893      1.008747
  H      -3.557043      2.059873     -0.606630
  C      -1.064998      0.070391      0.833905
  H      -0.080875     -0.208411      0.448150
  H      -1.636941     -0.854471      0.936689
  C      -0.907517      0.705558      2.206772
  H      -1.905137      0.856280      2.639971
  O      -0.296015      1.954493      2.026209
  C      -0.109078     -0.191868      3.146597
  H       0.907918     -0.320999      2.772075
  H      -0.052215      0.222160      4.153828
  H      -0.577278     -1.174613      3.221376
  C      -0.339943      2.851333      3.082414
  H       0.274789      2.533656      3.929065
  H       0.044371      3.804615      2.724085
  H      -1.364386      3.003855      3.440431
25
Coordinates from ORCA-job 12 Relaxed Surface Scan Step 22
  C      -2.178360      0.458394     -2.569087
  H      -2.936056      1.239422     -2.687666
  H      -1.228146      0.844883     -2.954995
  H      -2.474246     -0.393888     -3.178620
  O      -2.059263      0.022537     -1.260621
  C      -1.646302      0.971388     -0.299422
  H      -0.939331      1.636946     -0.804503
  C      -2.846953      1.766297      0.195232
  H      -3.569164      1.105208      0.678228
  H      -2.543930      2.538826      0.898817
  H      -3.351199      2.253688     -0.639805
  C      -0.905439      0.152922      0.766616
  H       0.124974      0.001530      0.430603
  H      -1.380178     -0.828733      0.790998
  C      -0.888512      0.702729      2.182829
  H      -1.926195      0.754619      2.540596
  O      -0.343527      1.993636      2.136081
  C      -0.105725     -0.211185      3.120575
  H       0.941691     -0.256351      2.816714
  H      -0.146274      0.136314      4.153394
  H      -0.516319     -1.221701      3.098013
  C      -0.512705      2.804927      3.247658
  H       0.068367      2.463461      4.108663
  H      -0.171074      3.804286      2.983960
  H      -1.565201      2.866486      3.546630
25
Coordinates from ORCA-job 12 Relaxed Surface Scan Step 23
  C      -2.421646      0.283174     -2.479710
  H      -3.173926      1.071062     -2.583040
  H      -1.526812      0.592120     -3.032155
  H      -2.814673     -0.620597     -2.942472
  O      -2.129814     -0.011345     -1.158710
  C      -1.530293      1.005688     -0.385642
  H      -0.833682      1.537406     -1.041850
  C      -2.589625      1.984124      0.105790
  H      -3.340481      1.468575      0.706316
  H      -2.141052      2.776103      0.700175
  H      -3.102245      2.444718     -0.739290
  C      -0.707237      0.274879      0.700159
  H       0.353666      0.344228      0.447471
  H      -0.982731     -0.776228      0.629525
  C      -0.854441      0.703795      2.153381
  H      -1.916420      0.684251      2.427883
  O      -0.366413      2.013932      2.268982
  C      -0.106400     -0.253219      3.077224
  H       0.957388     -0.262569      2.832711
  H      -0.211053      0.033201      4.124109
  H      -0.494484     -1.267489      2.973779
  C      -0.721374      2.733641      3.399473
  H      -0.272327      2.331696      4.311891
  H      -0.364735      3.753846      3.268811
  H      -1.808262      2.761649      3.536074
25
Coordinates from ORCA-job 12 Relaxed Surface Scan Step 24
  C      -2.690301      0.134898     -2.250306
  H      -3.497082      0.873284     -2.261485
  H      -1.936900      0.439647     -2.985618
  H      -3.105028     -0.822618     -2.560724
  O      -2.135058     -0.034536     -0.992346
  C      -1.378439      1.023867     -0.466054
  H      -0.722132      1.424844     -1.247813
  C      -2.273675      2.182993     -0.032252
  H      -3.022155      1.853732      0.689201
  H      -1.679620      2.975477      0.417388
  H      -2.801840      2.601117     -0.890004
  C      -0.477737      0.423182      0.633033
  H       0.549279      0.761591      0.489468
  H      -0.480341     -0.652200      0.462584
  C      -0.815253      0.697876      2.096303
  H      -1.896608      0.632289      2.256540
  O      -0.399401      2.008552      2.385469
  C      -0.125617     -0.309599      3.010965
  H       0.954264     -0.287446      2.852197
  H      -0.316515     -0.094942      4.062857
  H      -0.485073     -1.319633      2.808810
  C      -0.975570      2.631738      3.481081
  H      -0.727352      2.137681      4.424735
  H      -0.593970      3.650438      3.522649
  H      -2.066947      2.674407      3.394207
