28
Coordinates from ORCA-job 13 Relaxed Surface Scan Step 1
  C      73.698872    -16.579031     -2.129286
  H      74.026122    -16.615280     -1.079473
  O      73.105407    -15.334981     -2.366141
  C      72.611564    -17.631036     -2.319918
  H      73.056599    -18.626660     -2.255199
  H      72.214215    -17.523040     -3.329828
  C      74.966848    -16.808140     -2.971235
  H      75.523509    -15.869787     -3.005864
  H      75.599055    -17.524807     -2.439919
  C      73.670345    -14.227702     -1.759418
  H      73.055758    -13.364284     -2.007693
  H      73.695643    -14.333038     -0.668351
  H      74.688632    -14.027689     -2.105988
  C      74.808281    -17.313291     -4.402361
  H      74.329441    -18.300331     -4.379905
  C      71.476008    -17.511882     -1.309437
  H      71.004496    -16.531956     -1.373315
  H      70.711007    -18.269263     -1.492326
  H      71.837626    -17.647921     -0.286713
  C      76.169545    -17.467077     -5.077375
  H      76.072812    -17.864535     -6.088272
  H      76.671595    -16.499920     -5.140271
  H      76.806017    -18.152369     -4.514737
  C      73.383684    -16.870828     -6.256548
  H      72.697921    -16.096189     -6.594107
  H      74.100403    -17.066003     -7.060039
  H      72.809369    -17.787470     -6.080562
  O      73.991563    -16.418256     -5.097096
28
Coordinates from ORCA-job 13 Relaxed Surface Scan Step 2
  C      73.651826    -16.654319     -2.081171
  H      73.986978    -16.564337     -1.035261
  O      72.938787    -15.503998     -2.423602
  C      72.655043    -17.806494     -2.162131
  H      73.183969    -18.754348     -2.040585
  H      72.223371    -17.812256     -3.164715
  C      74.937402    -16.877040     -2.894261
  H      75.560366    -15.983170     -2.818926
  H      75.491554    -17.678425     -2.398322
  C      73.560861    -14.274436     -2.278849
  H      72.789052    -13.507407     -2.324011
  H      74.071317    -14.189284     -1.312080
  H      74.280579    -14.082651     -3.076617
  C      74.810270    -17.230755     -4.371956
  H      74.157982    -18.104997     -4.477061
  C      71.533742    -17.706713     -1.133450
  H      70.984040    -16.774043     -1.252873
  H      70.829991    -18.534381     -1.243050
  H      71.926780    -17.739694     -0.114003
  C      76.167768    -17.578500     -4.976822
  H      76.077518    -17.803686     -6.040317
  H      76.856964    -16.739190     -4.867826
  H      76.603768    -18.451617     -4.487760
  C      73.478272    -16.400989     -6.160393
  H      73.107294    -15.451192     -6.540561
  H      74.053409    -16.886474     -6.955586
  H      72.618418    -17.035474     -5.921799
  O      74.245015    -16.136895     -5.037391
28
Coordinates from ORCA-job 13 Relaxed Surface Scan Step 3
  C      73.671260    -16.684091     -2.131516
  H      73.968665    -16.432972     -1.102021
  O      72.890239    -15.644794     -2.642887
  C      72.770114    -17.915037     -2.066310
  H      73.370019    -18.779649     -1.772682
  H      72.386282    -18.124158     -3.066798
  C      74.978950    -16.914348     -2.904896
  H      75.626874    -16.042251     -2.790823
  H      75.496340    -17.745473     -2.418868
  C      73.373340    -14.349709     -2.514716
  H      72.567716    -13.670160     -2.788286
  H      73.668262    -14.133615     -1.481470
  H      74.221518    -14.162011     -3.173974
  C      74.866351    -17.201151     -4.400853
  H      74.075233    -17.937150     -4.569968
  C      71.597164    -17.752301     -1.105420
  H      70.976196    -16.905359     -1.394348
  H      70.972026    -18.647455     -1.099422
  H      71.943374    -17.584048     -0.082391
  C      76.164577    -17.759543     -4.971264
  H      76.072607    -17.908591     -6.048286
  H      76.985301    -17.061147     -4.798050
  H      76.421014    -18.717739     -4.515074
  C      73.505188    -16.050001     -5.979155
  H      73.437023    -15.071909     -6.452678
  H      73.670940    -16.796918     -6.763508
  H      72.553673    -16.262213     -5.484737
  O      74.552089    -16.008969     -5.070977
28
Coordinates from ORCA-job 13 Relaxed Surface Scan Step 4
  C      73.693434    -16.702174     -2.106038
  H      73.990235    -16.322098     -1.118883
  O      72.834895    -15.777056     -2.705242
  C      72.898651    -17.986580     -1.879584
  H      73.562974    -18.723048     -1.418939
  H      72.594897    -18.398185     -2.845109
  C      74.983709    -16.932901     -2.910281
  H      75.663427    -16.087140     -2.787700
  H      75.491706    -17.796082     -2.474173
  C      73.172582    -14.434410     -2.593779
  H      72.362794    -13.853799     -3.032670
  H      73.278376    -14.137722     -1.544267
  H      74.094404    -14.197651     -3.125881
  C      74.802050    -17.145823     -4.413235
  H      73.890679    -17.723549     -4.590821
  C      71.665278    -17.791745     -1.004788
  H      70.970742    -17.089502     -1.463399
  H      71.143803    -18.738945     -0.853013
  H      71.936602    -17.402275     -0.020070
  C      75.979972    -17.890211     -5.031416
  H      75.862962    -17.968667     -6.113393
  H      76.911077    -17.356391     -4.832182
  H      76.065613    -18.900618     -4.626713
  C      73.752107    -15.787822     -6.054722
  H      73.799148    -14.772802     -6.446131
  H      73.973535    -16.478760     -6.875317
  H      72.734853    -15.978829     -5.701330
  O      74.671832    -15.887980     -5.022300
28
Coordinates from ORCA-job 13 Relaxed Surface Scan Step 5
  C      73.706370    -16.720147     -2.102428
  H      73.997535    -16.213514     -1.176289
  O      72.791806    -15.907592     -2.779307
  C      73.001628    -18.016200     -1.706725
  H      73.708863    -18.608746     -1.115945
  H      72.778958    -18.597096     -2.606652
  C      74.981501    -16.991067     -2.926379
  H      75.724655    -16.207813     -2.768971
  H      75.432943    -17.910839     -2.549188
  C      72.988682    -14.535239     -2.685226
  H      72.195771    -14.047990     -3.250344
  H      72.926869    -14.196935     -1.645101
  H      73.949026    -14.230227     -3.102473
  C      74.760396    -17.105773     -4.435435
  H      73.775309    -17.540851     -4.625677
  C      71.721960    -17.801720     -0.907430
  H      70.986295    -17.249567     -1.490186
  H      71.281530    -18.757627     -0.616896
  H      71.918255    -17.236632      0.007610
  C      75.827109    -17.965398     -5.104419
  H      75.698271    -17.979992     -6.187588
  H      76.821561    -17.569606     -4.889488
  H      75.779693    -18.996132     -4.747712
  C      73.975199    -15.577132     -6.073635
  H      74.116012    -14.541622     -6.379583
  H      74.232870    -16.219187     -6.922216
  H      72.919106    -15.729921     -5.831681
  O      74.784162    -15.808199     -4.972013
28
Coordinates from ORCA-job 13 Relaxed Surface Scan Step 6
  C      73.691131    -16.778055     -2.146620
  H      74.014761    -16.140296     -1.319819
  O      72.733291    -16.077300     -2.889753
  C      73.028025    -18.011094     -1.535251
  H      73.774254    -18.512919     -0.908881
  H      72.767315    -18.708848     -2.337213
  C      74.935568    -17.161667     -2.986335
  H      75.781727    -16.518108     -2.741375
  H      75.238407    -18.171875     -2.705246
  C      72.766598    -14.690771     -2.800037
  H      71.998672    -14.296807     -3.463958
  H      72.545059    -14.353308     -1.781797
  H      73.732306    -14.286491     -3.106248
  C      74.755652    -17.105529     -4.501485
  H      73.755528    -17.460302     -4.763040
  C      71.790144    -17.698274     -0.703788
  H      71.018083    -17.232757     -1.314951
  H      71.375711    -18.608743     -0.266335
  H      72.026791    -17.016147      0.117246
  C      75.797786    -17.956593     -5.220223
  H      75.707526    -17.862350     -6.303083
  H      76.804700    -17.642838     -4.938238
  H      75.680176    -19.012126     -4.968044
  C      74.187151    -15.389111     -6.041813
  H      74.354836    -14.324633     -6.198416
  H      74.540998    -15.921569     -6.930198
  H      73.111084    -15.562297     -5.942269
  O      74.869054    -15.761957     -4.894209
28
Coordinates from ORCA-job 13 Relaxed Surface Scan Step 7
  C      73.651283    -16.856691     -2.236490
  H      74.040606    -16.093747     -1.554588
  O      72.643456    -16.282621     -3.026189
  C      73.021765    -17.969728     -1.401142
  H      73.811720    -18.475340     -0.839904
  H      72.608534    -18.711409     -2.091252
  C      74.831090    -17.397885     -3.085690
  H      75.769863    -16.978277     -2.715814
  H      74.900928    -18.478854     -2.949549
  C      72.473490    -14.906928     -2.933220
  H      71.700973    -14.619572     -3.645186
  H      72.142999    -14.608768     -1.932713
  H      73.391261    -14.369261     -3.176159
  C      74.767029    -17.125729     -4.581770
  H      73.781857    -17.425205     -4.949738
  C      71.931670    -17.494562     -0.448869
  H      71.115614    -17.023069     -0.996447
  H      71.516605    -18.331251      0.116442
  H      72.319799    -16.770098      0.272056
  C      75.840063    -17.910653     -5.331347
  H      75.813783    -17.698075     -6.400692
  H      76.832985    -17.649414     -4.960454
  H      75.694610    -18.985076     -5.206103
  C      74.416901    -15.211764     -5.945938
  H      74.574042    -14.134591     -5.918623
  H      74.911819    -15.602667     -6.840093
  H      73.343191    -15.405223     -6.035408
  O      74.934400    -15.746304     -4.776496
28
Coordinates from ORCA-job 13 Relaxed Surface Scan Step 8
  C      73.577937    -16.922218     -2.330638
  H      74.010854    -16.057818     -1.814371
  O      72.499131    -16.492972     -3.121464
  C      73.047807    -17.918578     -1.300986
  H      73.890767    -18.419720     -0.821966
  H      72.510494    -18.693057     -1.855123
  C      74.682241    -17.574196     -3.186629
  H      75.650494    -17.375133     -2.714148
  H      74.545264    -18.658132     -3.189994
  C      72.175269    -15.142688     -3.085347
  H      71.368678    -14.977185     -3.798511
  H      71.823404    -14.833545     -2.096092
  H      73.024651    -14.516761     -3.363837
  C      74.750176    -17.121614     -4.635537
  H      73.776748    -17.325548     -5.092912
  C      72.126633    -17.316838     -0.247128
  H      71.245929    -16.868481     -0.708058
  H      71.781119    -18.082293      0.450418
  H      72.634964    -16.544320      0.335689
  C      75.831368    -17.877684     -5.402461
  H      75.863780    -17.579622     -6.450961
  H      76.813473    -17.686409     -4.965746
  H      75.642964    -18.952244     -5.374279
  C      74.690633    -15.051444     -5.808137
  H      74.833157    -13.989472     -5.614287
  H      75.341388    -15.332646     -6.641093
  H      73.651773    -15.212570     -6.114840
  O      74.991238    -15.739575     -4.642938
28
Coordinates from ORCA-job 13 Relaxed Surface Scan Step 9
  C      73.510468    -16.974282     -2.387914
  H      73.946791    -16.040227     -2.018269
  O      72.351409    -16.686459     -3.129772
  C      73.124807    -17.867344     -1.210227
  H      74.032311    -18.266756     -0.753257
  H      72.585615    -18.725677     -1.619505
  C      74.552362    -17.670863     -3.269316
  H      75.520331    -17.625316     -2.758075
  H      74.287647    -18.726381     -3.371246
  C      71.945562    -15.360293     -3.203587
  H      71.068345    -15.318704     -3.847971
  H      71.667284    -14.961309     -2.223251
  H      72.723693    -14.722049     -3.626694
  C      74.709776    -17.093062     -4.666364
  H      73.740099    -17.170464     -5.169871
  C      72.264294    -17.187177     -0.152103
  H      71.322213    -16.840160     -0.577887
  H      72.025483    -17.878477      0.658402
  H      72.775279    -16.326715      0.287496
  C      75.752605    -17.861540     -5.472423
  H      75.825373    -17.494384     -6.496704
  H      76.736576    -17.770750     -5.007961
  H      75.490445    -18.919499     -5.523591
  C      74.961426    -14.937084     -5.653865
  H      75.093204    -13.903402     -5.337985
  H      75.733260    -15.165189     -6.394195
  H      73.983248    -15.029902     -6.138336
  O      75.052430    -15.739299     -4.526906
28
Coordinates from ORCA-job 13 Relaxed Surface Scan Step 10
  C      73.471640    -17.003190     -2.420160
  H      73.889257    -16.024675     -2.167454
  O      72.248131    -16.831404     -3.093296
  C      73.230249    -17.796788     -1.138164
  H      74.195262    -18.014570     -0.673527
  H      72.793711    -18.760118     -1.415494
  C      74.461866    -17.723427     -3.332634
  H      75.423340    -17.797043     -2.816600
  H      74.103826    -18.741415     -3.504879
  C      71.791166    -15.533333     -3.274119
  H      70.860742    -15.584773     -3.837946
  H      71.587342    -15.033180     -2.322249
  H      72.506053    -14.924164     -3.832961
  C      74.687391    -17.061096     -4.684108
  H      73.723048    -17.002091     -5.200826
  C      72.320953    -17.100986     -0.131924
  H      71.332588    -16.923384     -0.556621
  H      72.192808    -17.712350      0.763413
  H      72.733904    -16.138846      0.182106
  C      75.658388    -17.865041     -5.542991
  H      75.780552    -17.428289     -6.534739
  H      76.640348    -17.910180     -5.067722
  H      75.292104    -18.883898     -5.677929
  C      75.171350    -14.872517     -5.504176
  H      75.385150    -13.881680     -5.106704
  H      75.940891    -15.114673     -6.242339
  H      74.203709    -14.838651     -6.017094
  O      75.156565    -15.761000     -4.440240
28
Coordinates from ORCA-job 13 Relaxed Surface Scan Step 11
  C      73.432675    -17.007069     -2.467976
  H      73.810579    -15.993050     -2.323079
  O      72.164044    -16.948450     -3.075805
  C      73.332250    -17.693862     -1.107424
  H      74.333667    -17.722491     -0.666874
  H      73.026566    -18.732289     -1.263798
  C      74.386542    -17.753072     -3.395048
  H      75.327813    -17.934719     -2.871878
  H      73.946860    -18.726719     -3.622804
  C      71.612725    -15.693844     -3.289969
  H      70.655782    -15.832133     -3.791183
  H      71.435178    -15.154716     -2.354523
  H      72.249741    -15.070729     -3.925218
  C      74.695468    -17.035382     -4.702370
  H      73.752346    -16.830765     -5.221302
  C      72.368672    -17.023792     -0.134665
  H      71.352029    -17.024043     -0.528222
  H      72.356044    -17.549833      0.821816
  H      72.656786    -15.988052      0.063183
  C      75.579668    -17.883884     -5.610249
  H      75.772405    -17.391056     -6.563845
  H      76.539842    -18.080546     -5.129231
  H      75.098423    -18.838951     -5.826291
  C      75.380051    -14.846101     -5.360990
  H      75.719136    -13.922273     -4.895343
  H      76.088022    -15.106744     -6.152681
  H      74.403323    -14.662771     -5.822557
  O      75.305700    -15.815424     -4.373050
28
Coordinates from ORCA-job 13 Relaxed Surface Scan Step 12
  C      73.382157    -17.002401     -2.533630
  H      73.694845    -15.957358     -2.497771
  O      72.081870    -17.074627     -3.070694
  C      73.418603    -17.566291     -1.114189
  H      74.438747    -17.439407     -0.735876
  H      73.228701    -18.642708     -1.159427
  C      74.323022    -17.769770     -3.458302
  H      75.235234    -18.035231     -2.921520
  H      73.826427    -18.701915     -3.734291
  C      71.405898    -15.883639     -3.287850
  H      70.433770    -16.126196     -3.714563
  H      71.243751    -15.321384     -2.363785
  H      71.937688    -15.234360     -3.991423
  C      74.724430    -17.013864     -4.718188
  H      73.821105    -16.653492     -5.223492
  C      72.434327    -16.919805     -0.146563
  H      71.405389    -17.070736     -0.473671
  H      72.533313    -17.352519      0.850765
  H      72.608896    -15.844461     -0.056977
  C      75.505164    -17.898936     -5.683265
  H      75.795723    -17.356403     -6.583608
  H      76.412776    -18.271726     -5.204732
  H      74.900849    -18.752889     -5.993313
  C      75.598439    -14.845793     -5.192007
  H      76.120382    -14.040084     -4.678739
  H      76.170860    -15.105311     -6.087188
  H      74.617283    -14.475355     -5.509750
  O      75.482686    -15.906101     -4.307327
28
Coordinates from ORCA-job 13 Relaxed Surface Scan Step 13
  C      73.307405    -17.013693     -2.592648
  H      73.552475    -15.952148     -2.650504
  O      71.975123    -17.194613     -3.014063
  C      73.486977    -17.464054     -1.144548
  H      74.525104    -17.251587     -0.865326
  H      73.360891    -18.549856     -1.096853
  C      74.225904    -17.793007     -3.537265
  H      75.099573    -18.157559     -2.995424
  H      73.673877    -18.668229     -3.882411
  C      71.223484    -16.061893     -3.285104
  H      70.235053    -16.387688     -3.605683
  H      71.104420    -15.420393     -2.406940
  H      71.662985    -15.460523     -4.088180
  C      74.727591    -16.992769     -4.732873
  H      73.875651    -16.522243     -5.238405
  C      72.543018    -16.799526     -0.149874
  H      71.502886    -17.028806     -0.382585
  H      72.742389    -17.149251      0.864869
  H      72.660613    -15.712687     -0.151754
  C      75.466244    -17.872310     -5.734838
  H      75.834491    -17.295552     -6.584050
  H      76.320967    -18.354127     -5.256414
  H      74.804436    -18.647695     -6.123888
  C      75.777792    -14.871102     -5.022067
  H      76.361301    -14.156724     -4.444080
  H      76.336941    -15.110305     -5.931188
  H      74.836838    -14.392203     -5.315725
  O      75.557908    -15.982220     -4.223556
28
Coordinates from ORCA-job 13 Relaxed Surface Scan Step 14
  C      73.216108    -17.012607     -2.570331
  H      73.417754    -15.943232     -2.681906
  O      71.840294    -17.239673     -2.756648
  C      73.571583    -17.412077     -1.142617
  H      74.642010    -17.236679     -1.006019
  H      73.409931    -18.488693     -1.033266
  C      74.045877    -17.788098     -3.610185
  H      74.867379    -18.310811     -3.116507
  H      73.402800    -18.551186     -4.050816
  C      71.133441    -16.324276     -3.517475
  H      70.084375    -16.615519     -3.501365
  H      71.215947    -15.309452     -3.113544
  H      71.462703    -16.303207     -4.561842
  C      74.660205    -16.930840     -4.710693
  H      73.870389    -16.348337     -5.201844
  C      72.782190    -16.661713     -0.077355
  H      71.714005    -16.850819     -0.178265
  H      73.088526    -16.971443      0.923847
  H      72.943315    -15.582839     -0.152156
  C      75.365421    -17.778059     -5.763454
  H      75.807942    -17.162348     -6.547323
  H      76.162058    -18.365434     -5.303418
  H      74.661051    -18.462561     -6.239005
  C      75.891076    -14.888351     -4.767579
  H      76.511927    -14.284447     -4.108433
  H      76.460736    -15.093120     -5.678510
  H      75.005989    -14.303225     -5.041490
  O      75.547302    -16.043718     -4.083177
28
Coordinates from ORCA-job 13 Relaxed Surface Scan Step 15
  C      73.136359    -16.972813     -2.590409
  H      73.292086    -15.899065     -2.748505
  O      71.757325    -17.234650     -2.620838
  C      73.633829    -17.319781     -1.193380
  H      74.713694    -17.159901     -1.176411
  H      73.467008    -18.388199     -1.027482
  C      73.888175    -17.752055     -3.689797
  H      74.623122    -18.420461     -3.236423
  H      73.175541    -18.387523     -4.217467
  C      71.020545    -16.600373     -3.605064
  H      69.972266    -16.853640     -3.456027
  H      71.125311    -15.510833     -3.549961
  H      71.305659    -16.918512     -4.613801
  C      74.624290    -16.872958     -4.692153
  H      73.904168    -16.185281     -5.156462
  C      72.968158    -16.515298     -0.083797
  H      71.892024    -16.684022     -0.071339
  H      73.368239    -16.795732      0.892741
  H      73.140478    -15.443708     -0.215398
  C      75.293251    -17.692364     -5.789549
  H      75.810687    -17.057113     -6.509322
  H      76.023101    -18.378471     -5.356357
  H      74.552109    -18.276318     -6.337934
  C      76.031024    -14.952686     -4.537863
  H      76.673825    -14.462110     -3.809440
  H      76.618427    -15.135231     -5.442191
  H      75.212460    -14.270337     -4.792534
  O      75.559178    -16.123330     -3.964211
28
Coordinates from ORCA-job 13 Relaxed Surface Scan Step 16
  C      73.068519    -16.975092     -2.665957
  H      73.132818    -15.899449     -2.872429
  O      71.714281    -17.338385     -2.592914
  C      73.681756    -17.233107     -1.296016
  H      74.752019    -17.036455     -1.364968
  H      73.565265    -18.297348     -1.071478
  C      73.795798    -17.739519     -3.790671
  H      74.438168    -18.511570     -3.360944
  H      73.056145    -18.258718     -4.401314
  C      70.857153    -16.739036     -3.498640
  H      69.849457    -17.097923     -3.296264
  H      70.863272    -15.647698     -3.399603
  H      71.103231    -16.986541     -4.537169
  C      74.645053    -16.857994     -4.696392
  H      73.987335    -16.116334     -5.171371
  C      73.063718    -16.401202     -0.178877
  H      71.996987    -16.603017     -0.085835
  H      73.536546    -16.625176      0.779573
  H      73.190446    -15.331455     -0.366172
  C      75.341376    -17.661759     -5.788360
  H      75.927286    -17.022054     -6.449287
  H      76.013749    -18.397821     -5.344393
  H      74.609147    -18.188085     -6.403032
  C      76.134397    -15.022940     -4.374138
  H      76.747793    -14.592690     -3.584808
  H      76.774079    -15.203208     -5.242662
  H      75.370001    -14.290737     -4.656924
  O      75.566539    -16.187452     -3.880332
28
Coordinates from ORCA-job 13 Relaxed Surface Scan Step 17
  C      73.008676    -16.959841     -2.726325
  H      72.957043    -15.889884     -2.966956
  O      71.700909    -17.447869     -2.567748
  C      73.715180    -17.121828     -1.386145
  H      74.763078    -16.857072     -1.520223
  H      73.681869    -18.182512     -1.121375
  C      73.727804    -17.691315     -3.873410
  H      74.277756    -18.547310     -3.474655
  H      72.977490    -18.098360     -4.552445
  C      70.725339    -16.908249     -3.387492
  H      69.777549    -17.382616     -3.138744
  H      70.622645    -15.827869     -3.236116
  H      70.924105    -17.084084     -4.450347
  C      74.676549    -16.824478     -4.692421
  H      74.091768    -16.011948     -5.145804
  C      73.096917    -16.294708     -0.265139
  H      72.051212    -16.561196     -0.112854
  H      73.627820    -16.456531      0.675253
  H      73.144427    -15.225410     -0.489049
  C      75.349459    -17.619465     -5.806120
  H      75.998493    -16.990078     -6.415900
  H      75.955223    -18.422374     -5.382646
  H      74.602720    -18.061313     -6.467934
  C      76.285022    -15.122976     -4.241625
  H      76.895797    -14.770569     -3.412641
  H      76.943948    -15.312767     -5.093495
  H      75.585308    -14.326989     -4.519279
  O      75.618231    -16.263153     -3.819742
28
Coordinates from ORCA-job 13 Relaxed Surface Scan Step 18
  C      72.961173    -16.928488     -2.763013
  H      72.771435    -15.883953     -3.045124
  O      71.727361    -17.562921     -2.539002
  C      73.723985    -16.949627     -1.443879
  H      74.726091    -16.563087     -1.619401
  H      73.834189    -17.995313     -1.143388
  C      73.702979    -17.624008     -3.914495
  H      74.194038    -18.524522     -3.537337
  H      72.958716    -17.959997     -4.637952
  C      70.648940    -17.135483     -3.294018
  H      69.781467    -17.725348     -3.002938
  H      70.424500    -16.078003     -3.115505
  H      70.806569    -17.271951     -4.369276
  C      74.719060    -16.775631     -4.672872
  H      74.215188    -15.864276     -5.023021
  C      73.036005    -16.167240     -0.330869
  H      72.038933    -16.559971     -0.132874
  H      73.611609    -16.223524      0.595349
  H      72.937193    -15.109598     -0.591306
  C      75.271519    -17.521931     -5.883616
  H      75.982015    -16.911957     -6.442245
  H      75.783306    -18.431188     -5.563667
  H      74.467253    -17.799191     -6.566853
  C      76.513800    -15.302751     -4.132325
  H      77.187333    -15.100719     -3.301603
  H      77.118865    -15.470415     -5.027654
  H      75.893177    -14.415327     -4.298699
  O      75.745636    -16.406344     -3.793795
28
Coordinates from ORCA-job 13 Relaxed Surface Scan Step 19
  C      72.921340    -16.895336     -2.798477
  H      72.602607    -15.897763     -3.131300
  O      71.778211    -17.655870     -2.499546
  C      73.718297    -16.745839     -1.508282
  H      74.647006    -16.223489     -1.729523
  H      73.998449    -17.746957     -1.169989
  C      73.689303    -17.569723     -3.942791
  H      74.146427    -18.491396     -3.575281
  H      72.956392    -17.865604     -4.695058
  C      70.621503    -17.371592     -3.205322
  H      69.844125    -18.051286     -2.860595
  H      70.284438    -16.343711     -3.031598
  H      70.740866    -17.512289     -4.284697
  C      74.757021    -16.735313     -4.645988
  H      74.346848    -15.736747     -4.850861
  C      72.953117    -16.024688     -0.404069
  H      72.037289    -16.556455     -0.148000
  H      73.561582    -15.944457      0.499075
  H      72.680857    -15.009495     -0.706811
  C      75.170530    -17.371620     -5.970232
  H      75.943831    -16.788812     -6.471318
  H      75.561220    -18.376208     -5.798720
  H      74.319185    -17.442053     -6.649025
  C      76.724924    -15.544654     -4.020095
  H      77.462695    -15.540894     -3.219917
  H      77.256136    -15.635517     -4.971716
  H      76.199675    -14.582987     -4.011478
  O      75.858462    -16.602010     -3.789763
28
Coordinates from ORCA-job 13 Relaxed Surface Scan Step 20
  C      72.876816    -16.864742     -2.844154
  H      72.445537    -15.926283     -3.220016
  O      71.830264    -17.714279     -2.450315
  C      73.707668    -16.547044     -1.606836
  H      74.541615    -15.909763     -1.899091
  H      74.147341    -17.477863     -1.240667
  C      73.658025    -17.529548     -3.982700
  H      74.078648    -18.470553     -3.622358
  H      72.940402    -17.786933     -4.763680
  C      70.620386    -17.586759     -3.112217
  H      69.931897    -18.318173     -2.692603
  H      70.189047    -16.588787     -2.977092
  H      70.705694    -17.778425     -4.186663
  C      74.781546    -16.709815     -4.615582
  H      74.472153    -15.656816     -4.671825
  C      72.904486    -15.879488     -0.495928
  H      72.090308    -16.520896     -0.160822
  H      73.541010    -15.662403      0.364300
  H      72.471792    -14.932551     -0.831207
  C      75.101839    -17.198605     -6.025108
  H      75.928440    -16.640830     -6.465871
  H      75.379446    -18.254016     -6.001636
  H      74.237632    -17.082058     -6.681077
  C      76.867465    -15.809156     -3.894560
  H      77.625699    -15.996696     -3.136654
  H      77.358089    -15.801069     -4.872043
  H      76.440507    -14.815316     -3.718191
  O      75.908583    -16.803898     -3.786781
28
Coordinates from ORCA-job 13 Relaxed Surface Scan Step 21
  C      72.813624    -16.810677     -2.881818
  H      72.272458    -15.933146     -3.264399
  O      71.874442    -17.718946     -2.371539
  C      73.694434    -16.354079     -1.724528
  H      74.426393    -15.641351     -2.109385
  H      74.261894    -17.211144     -1.356809
  C      73.579088    -17.453481     -4.045128
  H      73.929917    -18.437941     -3.730275
  H      72.875821    -17.618169     -4.863440
  C      70.664493    -17.836136     -3.035794
  H      70.038268    -18.521129     -2.466909
  H      70.147173    -16.872724     -3.105451
  H      70.774920    -18.238749     -4.047220
  C      74.780704    -16.673414     -4.580310
  H      74.585027    -15.595504     -4.494545
  C      72.907269    -15.718267     -0.584176
  H      72.200295    -16.426592     -0.154632
  H      73.578819    -15.384246      0.209449
  H      72.343245    -14.846194     -0.926988
  C      75.061998    -17.005616     -6.042258
  H      75.944964    -16.483502     -6.411597
  H      75.229122    -18.078216     -6.157362
  H      74.219295    -16.716662     -6.672530
  C      76.947083    -16.103482     -3.763497
  H      77.664267    -16.454752     -3.024103
  H      77.455028    -16.046861     -4.730497
  H      76.630516    -15.092178     -3.484260
  O      75.881778    -16.989603     -3.771377
28
Coordinates from ORCA-job 13 Relaxed Surface Scan Step 22
  C      72.737195    -16.714576     -2.910531
  H      72.045770    -15.921422     -3.228453
  O      71.977449    -17.718574     -2.294315
  C      73.657710    -16.120134     -1.850334
  H      74.247952    -15.328306     -2.320883
  H      74.360259    -16.885626     -1.520745
  C      73.449604    -17.272485     -4.161179
  H      73.657655    -18.330043     -3.990682
  H      72.758746    -17.222935     -5.005223
  C      70.814716    -18.118556     -2.931813
  H      70.289974    -18.803833     -2.268412
  H      70.155916    -17.267905     -3.141114
  H      71.009973    -18.640140     -3.873690
  C      74.770450    -16.620948     -4.574230
  H      74.728645    -15.539351     -4.395974
  C      72.901869    -15.549140     -0.655714
  H      72.332984    -16.325859     -0.146934
  H      73.594498    -15.107504      0.063797
  H      72.202161    -14.766983     -0.963225
  C      75.074280    -16.865439     -6.049000
  H      76.039889    -16.447670     -6.334853