28
Coordinates from ORCA-job 14 Relaxed Surface Scan Step 1
  C      75.537666    -17.146140     -2.739693
  H      75.148280    -17.256233     -3.752006
  H      74.681061    -16.866928     -2.125263
  C      76.517177    -15.960121     -2.712365
  H      76.005874    -15.148524     -3.231699
  O      77.654525    -16.161474     -3.507106
  O      76.739216    -19.084085     -3.362423
  C      76.846336    -15.444186     -1.303109
  H      77.534120    -14.604021     -1.412345
  H      77.378120    -16.203227     -0.723984
  C      78.817828    -16.714026     -2.992094
  H      79.455646    -16.958494     -3.839876
  H      79.360538    -16.011469     -2.352716
  H      78.646495    -17.631146     -2.430138
  C      77.474293    -20.232987     -3.120106
  H      76.844264    -21.117799     -2.993648
  H      78.120801    -20.398726     -3.979976
  H      78.104805    -20.133634     -2.228730
  C      76.019966    -18.528985     -2.296879
  H      76.691720    -18.439749     -1.433009
  C      74.840109    -19.411517     -1.894596
  H      74.143615    -19.514299     -2.729177
  H      75.162281    -20.409347     -1.596260
  H      74.305325    -18.974194     -1.050018
  C      75.638582    -14.959249     -0.502134
  H      75.968332    -14.460470      0.410732
  H      75.044609    -14.241165     -1.072601
  H      74.978384    -15.774129     -0.202889
28
Coordinates from ORCA-job 14 Relaxed Surface Scan Step 2
  C      75.533342    -17.128882     -2.812874
  H      75.258014    -17.265503     -3.859509
  H      74.619677    -16.830819     -2.295601
  C      76.499182    -15.935312     -2.732927
  H      75.939526    -15.096781     -3.152512
  O      77.591835    -16.055821     -3.602895
  O      76.807775    -19.081385     -3.225989
  C      76.903006    -15.518443     -1.312470
  H      77.564484    -14.654587     -1.403508
  H      77.489908    -16.300974     -0.826594
  C      78.794362    -16.611692     -3.187857
  H      79.381608    -16.803540     -4.084481
  H      79.364965    -15.929125     -2.551007
  H      78.667964    -17.557247     -2.663989
  C      77.524447    -20.205047     -2.846940
  H      76.893205    -21.091599     -2.741300
  H      78.260246    -20.405260     -3.623723
  H      78.055078    -20.049061     -1.900287
  C      75.958620    -18.496805     -2.277578
  H      76.512095    -18.379528     -1.336588
  C      74.737950    -19.373870     -2.006460
  H      74.157328    -19.505379     -2.921660
  H      75.020373    -20.360522     -1.638715
  H      74.095905    -18.915497     -1.252693
  C      75.731950    -15.137289     -0.409004
  H      76.097979    -14.719244      0.530156
  H      75.095312    -14.383639     -0.878592
  H      75.103834    -15.993473     -0.158509
28
Coordinates from ORCA-job 14 Relaxed Surface Scan Step 3
  C      75.504274    -17.115843     -2.850109
  H      75.298941    -17.263763     -3.911766
  H      74.562476    -16.800243     -2.395973
  C      76.474210    -15.924874     -2.738804
  H      75.876541    -15.060445     -3.036478
  O      77.488863    -15.956489     -3.706501
  O      76.896153    -19.037346     -3.004029
  C      76.989802    -15.627416     -1.326743
  H      77.654037    -14.763588     -1.397927
  H      77.600855    -16.452282     -0.953503
  C      78.745186    -16.488610     -3.441838
  H      79.273205    -16.532836     -4.393289
  H      79.328133    -15.855427     -2.766450
  H      78.696210    -17.495311     -3.034130
  C      77.569855    -20.122172     -2.464831
  H      76.955891    -21.026312     -2.434855
  H      78.433677    -20.322734     -3.096257
  H      77.924357    -19.915106     -1.448416
  C      75.861887    -18.473032     -2.247259
  H      76.214182    -18.339875     -1.216520
  C      74.635440    -19.383320     -2.217474
  H      74.256820    -19.539068     -3.229417
  H      74.864998    -20.358292     -1.787049
  H      73.840989    -18.939622     -1.615541
  C      75.889462    -15.313542     -0.315285
  H      76.323862    -15.005309      0.637143
  H      75.250454    -14.499078     -0.664516
  H      75.249209    -16.174390     -0.116294
28
Coordinates from ORCA-job 14 Relaxed Surface Scan Step 4
  C      75.504888    -17.074726     -2.888524
  H      75.386808    -17.222853     -3.963716
  H      74.523055    -16.767311     -2.520685
  C      76.458732    -15.875133     -2.685755
  H      75.835908    -14.991408     -2.831547
  O      77.410770    -15.714464     -3.701088
  O      77.023028    -18.911103     -2.709868
  C      77.062399    -15.758786     -1.281499
  H      77.793088    -14.948555     -1.309406
  H      77.614321    -16.663247     -1.019132
  C      78.522258    -16.541265     -3.829397
  H      79.186130    -16.059039     -4.546036
  H      79.068667    -16.658672     -2.890356
  H      78.260123    -17.531118     -4.196242
  C      77.649792    -19.907252     -1.977012
  H      77.114462    -20.859619     -2.018993
  H      78.640853    -20.057195     -2.401716
  H      77.763889    -19.623169     -0.925038
  C      75.802701    -18.421892     -2.230690
  H      75.891680    -18.281087     -1.147656
  C      74.668047    -19.409180     -2.493721
  H      74.564907    -19.588654     -3.565343
  H      74.846732    -20.367349     -2.004867
  H      73.721438    -19.020057     -2.115703
  C      76.033926    -15.448466     -0.195070
  H      76.523122    -15.322461      0.772377
  H      75.497476    -14.522599     -0.415102
  H      75.290772    -16.239664     -0.082325
28
Coordinates from ORCA-job 14 Relaxed Surface Scan Step 5
  C      75.517916    -17.086102     -2.935555
  H      75.548781    -17.244704     -4.015641
  H      74.489866    -16.800319     -2.702230
  C      76.427509    -15.864584     -2.646254
  H      75.763409    -15.000538     -2.663815
  O      77.309416    -15.592393     -3.702076
  O      77.059181    -18.857937     -2.508444
  C      77.132938    -15.829908     -1.285792
  H      77.889239    -15.043421     -1.354938
  H      77.666553    -16.761589     -1.097692
  C      78.378273    -16.441042     -3.969596
  H      78.928681    -15.999861     -4.799305
  H      79.059913    -16.532422     -3.119851
  H      78.054564    -17.442542     -4.249775
  C      77.593476    -19.844518     -1.693277
  H      77.101678    -20.811636     -1.827503
  H      78.643371    -19.958870     -1.956721
  H      77.530109    -19.570401     -0.634405
  C      75.756985    -18.422193     -2.234685
  H      75.651806    -18.282333     -1.152282
  C      74.721169    -19.451824     -2.680363
  H      74.812718    -19.639622     -3.751605
  H      74.844447    -20.400536     -2.157164
  H      73.710413    -19.094922     -2.477193
  C      76.197076    -15.517632     -0.119600
  H      76.747874    -15.489798      0.822304
  H      75.718368    -14.544426     -0.249829
  H      75.404243    -16.260251     -0.010823
28
Coordinates from ORCA-job 14 Relaxed Surface Scan Step 6
  C      75.560840    -17.135259     -3.012400
  H      75.787366    -17.342510     -4.059076
  H      74.503931    -16.863833     -2.982968
  C      76.391996    -15.874886     -2.634107
  H      75.672321    -15.066064     -2.520210
  O      77.175057    -15.469103     -3.727810
  O      77.026871    -18.878889     -2.336425
  C      77.211961    -15.875270     -1.337489
  H      77.921690    -15.049006     -1.448526
  H      77.797464    -16.787748     -1.239593
  C      78.299856    -16.218622     -4.055684
  H      78.655777    -15.860862     -5.020641
  H      79.106460    -16.090624     -3.328346
  H      78.082114    -17.285189     -4.132118
  C      77.458645    -19.836086     -1.430201
  H      76.979423    -20.806489     -1.584949
  H      78.530965    -19.962298     -1.567549
  H      77.276297    -19.523465     -0.396142
  C      75.697502    -18.444503     -2.241797
  H      75.440705    -18.280311     -1.188567
  C      74.734108    -19.491375     -2.797016
  H      74.964517    -19.699189     -3.843388
  H      74.795162    -20.428551     -2.242975
  H      73.703367    -19.139675     -2.732857
  C      76.380564    -15.643416     -0.077182
  H      77.018746    -15.626313      0.808194
  H      75.855920    -14.686289     -0.122881
  H      75.630343    -16.420495      0.078594
28
Coordinates from ORCA-job 14 Relaxed Surface Scan Step 7
  C      75.716948    -17.244330     -3.144415
  H      76.231578    -17.574608     -4.045750
  H      74.701943    -17.000608     -3.462572
  C      76.373012    -15.919473     -2.665288
  H      75.565437    -15.229148     -2.419340
  O      76.985679    -15.300451     -3.771792
  O      76.955843    -18.954586     -2.086239
  C      77.311448    -15.944863     -1.446120
  H      77.918901    -15.041314     -1.517450
  H      77.992099    -16.792748     -1.492476
  C      78.211137    -15.782798     -4.214167
  H      78.390092    -15.361560     -5.202310
  H      79.034060    -15.479145     -3.561611
  H      78.231706    -16.872662     -4.295879
  C      77.198263    -19.859152     -1.063159
  H      76.737469    -20.833492     -1.246939
  H      78.275240    -20.002527     -0.995966
  H      76.838924    -19.486170     -0.097960
  C      75.649434    -18.462961     -2.228552
  H      75.269021    -18.180829     -1.242027
  C      74.717540    -19.522079     -2.812136
  H      75.064254    -19.829987     -3.800394
  H      74.667483    -20.408198     -2.178804
  H      73.703969    -19.130022     -2.907932
  C      76.610006    -15.907441     -0.088538
  H      77.346176    -15.815262      0.712366
  H      75.938814    -15.048238     -0.015844
  H      76.023493    -16.801670      0.117191
28
Coordinates from ORCA-job 14 Relaxed Surface Scan Step 8
  C      75.950832    -17.363932     -3.209867
  H      76.710194    -17.765553     -3.880832
  H      75.067549    -17.186195     -3.825616
  C      76.388124    -15.984408     -2.684349
  H      75.489942    -15.465919     -2.341370
  O      76.791427    -15.195644     -3.780427
  O      76.878161    -18.991909     -1.780373
  C      77.422008    -15.950377     -1.544966
  H      77.894353    -14.968838     -1.578917
  H      78.205157    -16.689905     -1.715181
  C      78.031515    -15.408909     -4.367032
  H      78.076632    -14.784169     -5.257563
  H      78.857947    -15.123421     -3.711174
  H      78.185701    -16.446409     -4.674484
  C      76.876854    -19.909100     -0.739679
  H      76.534307    -20.897942     -1.055733
  H      77.900205    -20.004157     -0.380802
  H      76.248535    -19.579515      0.094959
  C      75.645351    -18.471184     -2.203269
  H      75.130876    -18.057186     -1.327769
  C      74.757481    -19.544679     -2.826025
  H      75.244150    -19.980614     -3.700971
  H      74.537066    -20.348479     -2.123191
  H      73.805748    -19.113901     -3.139576
  C      76.858715    -16.114699     -0.134224
  H      77.642876    -15.928405      0.602189
  H      76.055737    -15.398283      0.056495
  H      76.472526    -17.112592      0.055638
28
Coordinates from ORCA-job 14 Relaxed Surface Scan Step 9
  C      76.113371    -17.417077     -3.201753
  H      76.981048    -17.806055     -3.737473
  H      75.328798    -17.258870     -3.944193
  C      76.421680    -16.033483     -2.613283
  H      75.500079    -15.654542     -2.167164
  O      76.659766    -15.119425     -3.657807
  O      76.816970    -19.009504     -1.606801
  C      77.528362    -15.973130     -1.543515
  H      78.012573    -15.000150     -1.640539
  H      78.288825    -16.732127     -1.731267
  C      77.777154    -15.278479     -4.466058
  H      77.854881    -14.387962     -5.087618
  H      78.702314    -15.371914     -3.891175
  H      77.697053    -16.144921     -5.128057
  C      76.650498    -19.879511     -0.539262
  H      76.336387    -20.876806     -0.858209
  H      77.610860    -19.971983     -0.035301
  H      75.917114    -19.503086      0.182320
  C      75.666908    -18.515029     -2.238895
  H      75.002098    -18.090609     -1.474527
  C      74.910512    -19.615205     -2.978310
  H      75.543850    -20.058913     -3.749246
  H      74.587539    -20.409409     -2.304894
  H      74.018533    -19.207902     -3.455919
  C      77.025272    -16.098381     -0.107381
  H      77.857179    -16.023158      0.595624
  H      76.319847    -15.298750      0.131379
  H      76.530502    -17.049943      0.075217
28
Coordinates from ORCA-job 14 Relaxed Surface Scan Step 10
  C      76.192662    -17.453673     -3.189514
  H      77.100611    -17.831431     -3.665305
  H      75.461746    -17.278532     -3.981278
  C      76.449957    -16.085945     -2.540956
  H      75.547845    -15.806039     -1.994554
  O      76.539288    -15.094707     -3.537879
  O      76.707445    -18.996855     -1.471481
  C      77.639624    -16.008929     -1.562120
  H      78.137241    -15.053653     -1.738856
  H      78.366367    -16.794788     -1.772430
  C      77.560016    -15.168943     -4.475237
  H      77.545155    -14.241060     -5.044647
  H      78.547107    -15.268362     -4.014973
  H      77.425344    -15.997188     -5.176425
  C      76.397152    -19.824543     -0.402463
  H      76.125326    -20.834573     -0.720303
  H      77.281098    -19.894695      0.228705
  H      75.574765    -19.420143      0.198043
  C      75.657006    -18.564008     -2.291769
  H      74.853422    -18.160617     -1.660087
  C      75.084424    -19.708845     -3.123411
  H      75.858180    -20.135310     -3.764905
  H      74.686788    -20.506236     -2.495256
  H      74.269442    -19.351921     -3.754346
  C      77.236963    -16.068230     -0.090988
  H      78.117500    -16.017911      0.552598
  H      76.588319    -15.228678      0.170721
  H      76.709177    -16.990508      0.145007
28
Coordinates from ORCA-job 14 Relaxed Surface Scan Step 11
  C      76.274536    -17.620562     -3.137206
  H      77.232315    -17.925015     -3.567677
  H      75.626333    -17.331173     -3.966120
  C      76.439603    -16.384119     -2.236532
  H      75.614153    -16.379881     -1.522656
  O      76.239615    -15.195290     -2.964636
  O      76.462107    -19.251635     -1.415738
  C      77.746012    -16.367114     -1.440996
  H      78.597787    -16.383780     -2.127064
  H      77.798919    -17.299100     -0.881735
  C      77.136955    -14.855652     -3.966756
  H      76.749376    -13.965353     -4.459186
  H      78.132065    -14.621197     -3.579334
  H      77.241588    -15.640714     -4.721315
  C      75.886874    -20.022472     -0.416449
  H      75.563981    -21.003289     -0.776269
  H      76.637236    -20.175709      0.356890
  H      75.023424    -19.520048      0.032990
  C      75.635409    -18.832907     -2.466962
  H      74.667726    -18.523430     -2.050616
  C      75.397512    -19.959829     -3.467148
  H      76.345902    -20.295291     -3.890566
  H      74.913872    -20.817614     -2.998886
  H      74.753890    -19.622724     -4.281103
  C      77.863951    -15.176979     -0.494315
  H      78.802082    -15.216024      0.063257
  H      77.829028    -14.228207     -1.030132
  H      77.047719    -15.171215      0.232154
28
Coordinates from ORCA-job 14 Relaxed Surface Scan Step 12
  C      76.350263    -17.657706     -3.144570
  H      77.324253    -17.987693     -3.516324
  H      75.758754    -17.357133     -4.010430
  C      76.495849    -16.437497     -2.215478
  H      75.737787    -16.517189     -1.435649
  O      76.158861    -15.239953     -2.874955
  O      76.360584    -19.208770     -1.352513
  C      77.859136    -16.366322     -1.527221
  H      78.647800    -16.274004     -2.280072
  H      78.021221    -17.325084     -1.035896
  C      76.967542    -14.786894     -3.906772
  H      76.463060    -13.938041     -4.365497
  H      77.946492    -14.448829     -3.556437
  H      77.126470    -15.544382     -4.680269
  C      75.686773    -19.931944     -0.379575
  H      75.400838    -20.930450     -0.721879
  H      76.354917    -20.044074      0.472205
  H      74.782954    -19.411320     -0.045085
  C      75.645199    -18.846774     -2.502132
  H      74.638938    -18.522654     -2.204579
  C      75.514819    -20.017396     -3.470168
  H      76.502833    -20.372354     -3.768541
  H      74.975896    -20.852753     -3.021884
  H      74.969259    -19.716006     -4.365878
  C      77.971684    -15.230986     -0.515327
  H      78.956250    -15.225479     -0.043060
  H      77.815704    -14.258124     -0.982313
  H      77.225833    -15.336512      0.276192
28
Coordinates from ORCA-job 14 Relaxed Surface Scan Step 13
  C      76.462162    -17.713092     -3.122651
  H      77.452753    -18.088833     -3.392809
  H      75.968034    -17.408400     -4.045443
  C      76.568504    -16.492615     -2.185098
  H      75.877997    -16.643696     -1.356032
  O      76.094312    -15.316841     -2.797313
  O      76.283473    -19.225536     -1.321220
  C      77.964469    -16.329735     -1.585224
  H      78.693242    -16.164623     -2.384943
  H      78.226138    -17.284300     -1.126400
  C      76.816640    -14.762075     -3.843232
  H      76.202046    -13.978475     -4.283540
  H      77.754851    -14.309193     -3.511341
  H      77.050202    -15.489275     -4.626882
  C      75.518177    -19.900382     -0.381963
  H      75.211978    -20.892608     -0.725266
  H      76.124744    -20.023688      0.513244
  H      74.617922    -19.335953     -0.115828
  C      75.661863    -18.862515     -2.524311
  H      74.650442    -18.493251     -2.306824
  C      75.556782    -20.045724     -3.479317
  H      76.549426    -20.442625     -3.699338
  H      74.955376    -20.851813     -3.057580
  H      75.088853    -19.741640     -4.417118
  C      78.059919    -15.211977     -0.552574
  H      79.071429    -15.139409     -0.147713
  H      77.797537    -14.244270     -0.981004
  H      77.380701    -15.393780      0.283611
28
Coordinates from ORCA-job 14 Relaxed Surface Scan Step 14
  C      76.600743    -17.782042     -3.062010
  H      77.593546    -18.214127     -3.208206
  H      76.237289    -17.477403     -4.043148
  C      76.664917    -16.551704     -2.133039
  H      76.049054    -16.758031     -1.259686
  O      76.046541    -15.425722     -2.709928
  O      76.212060    -19.293387     -1.301750
  C      78.077568    -16.269160     -1.622305
  H      78.750365    -16.071424     -2.462582
  H      78.434953    -17.191850     -1.160459
  C      76.661428    -14.785901     -3.775716
  H      75.949569    -14.066855     -4.178027
  H      77.559862    -14.240251     -3.474944
  H      76.938114    -15.473608     -4.580449
  C      75.347078    -19.910802     -0.410984
  H      74.977623    -20.871000     -0.782329
  H      75.895105    -20.092578      0.511652
  H      74.483984    -19.276191     -0.182389
  C      75.686008    -18.879241     -2.534171
  H      74.690251    -18.446684     -2.370184
  C      75.562698    -20.044640     -3.508351
  H      76.541359    -20.494238     -3.685896
  H      74.898396    -20.820271     -3.125675
  H      75.157857    -19.705861     -4.463501
  C      78.147952    -15.129442     -0.611782
  H      79.172250    -14.977831     -0.265276
  H      77.792926    -14.190006     -1.035909
  H      77.530474    -15.346073      0.262934
28
Coordinates from ORCA-job 14 Relaxed Surface Scan Step 15
  C      76.751211    -17.855559     -2.972512
  H      77.724586    -18.348697     -2.986020
  H      76.539556    -17.555792     -3.998626
  C      76.780953    -16.614120     -2.062310
  H      76.253908    -16.862535     -1.144322
  O      76.016278    -15.559177     -2.597644
  O      76.133217    -19.373424     -1.287852
  C      78.197008    -16.201290     -1.656686
  H      78.808373    -15.986444     -2.538266
  H      78.654004    -17.074781     -1.186002
  C      76.489636    -14.859741     -3.697753
  H      75.691660    -14.196529     -4.027717
  H      77.362803    -14.246292     -3.460314
  H      76.754092    -15.511058     -4.535704
  C      75.163748    -19.920609     -0.461352
  H      74.716726    -20.826373     -0.881422
  H      75.640895    -20.184145      0.480803
  H      74.359941    -19.205628     -0.254987
  C      75.718008    -18.887911     -2.537038
  H      74.750008    -18.386375     -2.416918
  C      75.569792    -20.016782     -3.549884
  H      76.525817    -20.523362     -3.694889
  H      74.841078    -20.758354     -3.220623
  H      75.233299    -19.628397     -4.512701
  C      78.238026    -15.026025     -0.685470
  H      79.265971    -14.789992     -0.403001
  H      77.792030    -14.128415     -1.113670
  H      77.687349    -15.258517      0.228772
28
Coordinates from ORCA-job 14 Relaxed Surface Scan Step 16
  C      76.899397    -17.921785     -2.867845
  H      77.833707    -18.472126     -2.753109
  H      76.842875    -17.628638     -3.916621
  C      76.905494    -16.676967     -1.972024
  H      76.487439    -16.963520     -1.010622
  O      76.004620    -15.698201     -2.435705
  O      76.039378    -19.428378     -1.281238
  C      78.312140    -16.139679     -1.696367
  H      78.841380    -15.912383     -2.626306
  H      78.873529    -16.955127     -1.234004
  C      76.288905    -14.985745     -3.591284
  H      75.447196    -14.319600     -3.773088
  H      77.189885    -14.373899     -3.497642
  H      76.405664    -15.625794     -4.470139
  C      74.964499    -19.891167     -0.537786
  H      74.451012    -20.728686     -1.019384
  H      75.347453    -20.235278      0.421280
  H      74.230628    -19.099014     -0.354482
  C      75.760676    -18.883361     -2.544305
  H      74.824319    -18.317862     -2.483306
  C      75.616442    -19.976968     -3.595828
  H      76.548446    -20.537593     -3.689737
  H      74.824499    -20.680392     -3.336139
  H      75.370787    -19.547093     -4.568565
  C      78.333008    -14.929046     -0.768573
  H      79.357957    -14.613000     -0.564416
  H      77.797956    -14.080478     -1.194550
  H      77.860679    -15.164543      0.187680
28
Coordinates from ORCA-job 14 Relaxed Surface Scan Step 17
  C      77.032220    -17.968326     -2.773180
  H      77.920839    -18.565721     -2.564486
  H      77.102196    -17.668483     -3.820696
  C      77.032175    -16.737648     -1.865160
  H      76.750856    -17.070012     -0.868842
  O      76.014595    -15.825110     -2.204001
  O      75.926170    -19.424948     -1.290461
  C      78.414285    -16.088148     -1.751359
  H      78.814824    -15.835586     -2.737372
  H      79.090154    -16.846171     -1.347688
  C      76.051612    -15.166049     -3.423945
  H      75.234716    -14.446295     -3.425441
  H      76.984563    -14.618265     -3.580965
  H      75.906247    -15.839510     -4.273374
  C      74.747634    -19.778698     -0.651298
  H      74.192019    -20.549372     -1.194351
  H      75.007064    -20.175556      0.328557
  H      74.089831    -18.914233     -0.513056
  C      75.815637    -18.866092     -2.573098
  H      74.910957    -18.250997     -2.612337
  C      75.727310    -19.955710     -3.635208
  H      76.632572    -20.565678     -3.628567
  H      74.875856    -20.614429     -3.459931
  H      75.609931    -19.520237     -4.629353
  C      78.438600    -14.859767     -0.847611
  H      79.452728    -14.466400     -0.753438
  H      77.802475    -14.062705     -1.232301
  H      78.081903    -15.106178      0.154852
28
Coordinates from ORCA-job 14 Relaxed Surface Scan Step 18
  C      77.144644    -18.027698     -2.735265
  H      78.000790    -18.655136     -2.476095
  H      77.288719    -17.719388     -3.774001
  C      77.144569    -16.815044     -1.802870
  H      77.029927    -17.191433     -0.788245
  O      76.013551    -15.996190     -1.983262
  O      75.806853    -19.363841     -1.318604
  C      78.459646    -16.035663     -1.869386
  H      78.644648    -15.687068     -2.889740
  H      79.267559    -16.736586     -1.644731
  C      75.842077    -15.313045     -3.178302
  H      74.907236    -14.760302     -3.101643
  H      76.643139    -14.595092     -3.372958
  H      75.768337    -15.981297     -4.041211
  C      74.538085    -19.525236     -0.782173
  H      73.929279    -20.229806     -1.358074
  H      74.650544    -19.920247      0.225975
  H      74.003746    -18.571821     -0.725318
  C      75.883287    -18.876914     -2.631510
  H      75.017274    -18.237393     -2.826156
  C      75.883202    -20.029694     -3.628605
  H      76.747013    -20.675612     -3.461849
  H      74.983246    -20.637644     -3.525253
  H      75.919323    -19.659747     -4.655234
  C      78.522784    -14.861504     -0.897895
  H      79.487631    -14.354485     -0.961293
  H      77.742111    -14.128858     -1.102640
  H      78.390751    -15.199577      0.132230
28
Coordinates from ORCA-job 14 Relaxed Surface Scan Step 19
  C      77.251933    -18.107440     -2.681340
  H      78.061148    -18.769090     -2.356022
  H      77.482587    -17.809059     -3.708167
  C      77.241122    -16.892236     -1.745431
  H      77.292853    -17.269262     -0.724120
  O      76.022586    -16.187505     -1.784501
  O      75.692667    -19.302742     -1.362660
  C      78.444312    -15.983269     -1.992709
  H      78.372749    -15.566724     -3.002624
  H      79.344359    -16.603409     -1.984935
  C      75.691698    -15.451194     -2.913214
  H      74.643347    -15.171114     -2.821540
  H      76.278458    -14.533112     -3.001237
  H      75.810590    -16.018416     -3.841005
  C      74.371112    -19.266711     -0.942404
  H      73.723246    -19.898175     -1.560024
  H      74.336181    -19.642817      0.078658
  H      73.979228    -18.246068     -0.952438
  C      75.949891    -18.896290     -2.678344
  H      75.152157    -18.229483     -3.019514
  C      76.004568    -20.107395     -3.601571
  H      76.800674    -20.786038     -3.290801
  H      75.063134    -20.658416     -3.573860
  H      76.187322    -19.807565     -4.635568
  C      78.586916    -14.860944     -0.969980
  H      79.449335    -14.231038     -1.196798
  H      77.700852    -14.226136     -0.947416
  H      78.724945    -15.264676      0.035459
28
Coordinates from ORCA-job 14 Relaxed Surface Scan Step 20
  C      77.340329    -18.196372     -2.550290
  H      78.045591    -18.910112     -2.109918
  H      77.707662    -17.959210     -3.552972
  C      77.331849    -16.934899     -1.661860
  H      77.540405    -17.247547     -0.637207
  O      76.067832    -16.318065     -1.585221
  O      75.571726    -19.274710     -1.408288
  C      78.415995    -15.951219     -2.098304
  H      78.135188    -15.558378     -3.081697
  H      79.346178    -16.506422     -2.243775
  C      75.602565    -15.550673     -2.644180
  H      74.530153    -15.421030     -2.504238
  H      76.059330    -14.558150     -2.673399
  H      75.761806    -16.022683     -3.617940
  C      74.218999    -19.151665     -1.130793
  H      73.599866    -19.732265     -1.823635
  H      74.049787    -19.533442     -0.125362
  H      73.900394    -18.106889     -1.163960
  C      75.997095    -18.896061     -2.686503
  H      75.293197    -18.183239     -3.128204
  C      76.076615    -20.118947     -3.593480
  H      76.790303    -20.841609     -3.194364
  H      75.105008    -20.610588     -3.664102
  H      76.387728    -19.844134     -4.603491
  C      78.649163    -14.808713     -1.115554
  H      79.400476    -14.112468     -1.493380
  H      77.732796    -14.248552     -0.927972
  H      79.001934    -15.188281     -0.154019
28
Coordinates from ORCA-job 14 Relaxed Surface Scan Step 21
  C      77.394833    -18.283056     -2.380807
  H      77.939820    -19.031289     -1.796871
  H      77.927375    -18.162814     -3.327424
  C      77.412961    -16.948808     -1.585972
  H      77.776612    -17.172089     -0.581680
  O      76.135220    -16.393853     -1.378635
  O      75.447429    -19.265865     -1.466522
  C      78.381705    -15.941704     -2.207401
  H      77.959324    -15.602217     -3.159234
  H      79.308620    -16.465510     -2.452429
  C      75.541306    -15.588998     -2.341337
  H      74.485972    -15.506751     -2.085157
  H      75.959970    -14.579870     -2.360297
  H      75.611778    -15.999014     -3.352139
  C      74.076157    -19.113458     -1.348110
  H      73.527898    -19.667248     -2.118373
  H      73.780753    -19.504448     -0.376021
  H      73.784500    -18.061317     -1.399248
  C      76.032826    -18.892175     -2.680640
  H      75.419638    -18.144202     -3.192419
  C      76.152900    -20.108817     -3.593499
  H      76.795061    -20.863990     -3.137085
  H      75.174249    -20.560003     -3.764562
  H      76.571141    -19.837356     -4.564899
  C      78.700142    -14.751374     -1.307779
  H      79.353748    -14.039612     -1.815942
  H      77.798270    -14.221765     -1.000840
  H      79.209762    -15.078719     -0.398786
28
Coordinates from ORCA-job 14 Relaxed Surface Scan Step 22
  C      77.412716    -18.336917     -2.210352
  H      77.786485    -19.084874     -1.507469
  H      78.088815    -18.348416     -3.067351
  C      77.489844    -16.943536     -1.520553
  H      78.001476    -17.100155     -0.570530
  O      76.240447    -16.416665     -1.147726
  O      75.324449    -19.210393     -1.529259
  C      78.343974    -15.948669     -2.312859
  H      77.819128    -15.660531     -3.229069
  H      79.248985    -16.467677     -2.635626
  C      75.506210    -15.605596     -2.001636
  H      74.504679    -15.525964     -1.581828
  H      75.916781    -14.596024     -2.078671
  H      75.416506    -16.005885     -3.013685
  C      73.945430    -19.124730     -1.605130
  H      73.525279    -19.782344     -2.373708
  H      73.540394    -19.428425     -0.641630
  H      73.613805    -18.102204     -1.809727
  C      76.056580    -18.863355     -2.669160
  H      75.527084    -18.091165     -3.234464
  C      76.224401    -20.079091     -3.577741