21
Coordinates from ORCA-job 15 Relaxed Surface Scan Step 1
  O      -0.940002     -1.209939     -0.220278
  C      -2.229832     -1.482813     -0.645797
  H      -2.889724     -0.612546     -0.567375
  H      -2.181246     -1.777982     -1.692457
  H      -2.678313     -2.304044     -0.075703
  C      -0.777775     -0.798962      1.112966
  H      -1.593139     -1.215261      1.714619
  C      -0.864939      0.719630      1.210523
  H      -1.848403      1.066436      0.889061
  H      -0.712721      1.056777      2.237617
  H      -0.122037      1.195552      0.571393
  C       0.519707     -1.425388      1.628960
  H       0.571676     -1.306129      2.715987
  H       0.416800     -2.497107      1.449257
  C       1.821882     -0.934742      0.974559
  H       2.523511     -1.770547      0.933660
  H       1.621110     -0.670557     -0.065785
  C       2.519389      0.220985      1.691083
  H       2.786400     -0.058853      2.713451
  H       3.442061      0.494692      1.174760
  H       1.899077      1.115597      1.748080
21
Coordinates from ORCA-job 15 Relaxed Surface Scan Step 2
  O      -1.207934     -0.626964     -0.248510
  C      -1.862568     -1.789189     -0.624933
  H      -2.807199     -1.912786     -0.083674
  H      -2.083474     -1.715547     -1.688291
  H      -1.257183     -2.686243     -0.465387
  C      -0.949614     -0.440792      1.117444
  H      -1.824092     -0.776489      1.688706
  C      -0.805339      1.056615      1.331617
  H      -1.734861      1.555416      1.056161
  H      -0.582783      1.286229      2.374990
  H      -0.013159      1.465330      0.705160
  C       0.244989     -1.281777      1.589024
  H       0.341839     -1.168984      2.673405
  H      -0.014145     -2.331018      1.433216
  C       1.588307     -0.992349      0.897302
  H       2.135558     -1.932172      0.792932
  H       1.396429     -0.647464     -0.120951
  C       2.497275     -0.003053      1.625362
  H       2.751369     -0.368309      2.623685
  H       3.432588      0.135959      1.078968
  H       2.037476      0.978387      1.742358
21
Coordinates from ORCA-job 15 Relaxed Surface Scan Step 3
  O      -1.221255     -0.712995     -0.280602
  C      -2.035166     -1.802727     -0.552725
  H      -3.002376     -1.718496     -0.045114
  H      -2.211253     -1.826235     -1.626658
  H      -1.578908     -2.753688     -0.261958
  C      -0.895132     -0.484737      1.066284
  H      -1.742931     -0.789633      1.687359
  C      -0.738666      1.017055      1.238324
  H      -1.677308      1.508220      0.980547
  H      -0.485809      1.272050      2.268699
  H       0.032947      1.411825      0.578413
  C       0.314385     -1.336184      1.481451
  H       0.365321     -1.390917      2.573978
  H       0.100280     -2.357751      1.161666
  C       1.672121     -0.912066      0.897047
  H       2.285152     -1.803296      0.750832
  H       1.514769     -0.498534     -0.101957
  C       2.482130      0.060896      1.753438
  H       2.694891     -0.370372      2.734983
  H       3.440331      0.283632      1.279085
  H       1.969957      1.008755      1.915488
21
Coordinates from ORCA-job 15 Relaxed Surface Scan Step 4
  O      -1.283082     -0.754489     -0.299305
  C      -2.156282     -1.818962     -0.472031
  H      -3.092592     -1.662901      0.074915
  H      -2.385680     -1.893875     -1.533463
  H      -1.727740     -2.772311     -0.148075
  C      -0.860179     -0.500650      1.016602
  H      -1.666951     -0.776932      1.699852
  C      -0.686569      1.003612      1.146997
  H      -1.629819      1.490765      0.899298
  H      -0.411743      1.283327      2.164717
  H       0.071309      1.380052      0.461002
  C       0.365029     -1.369466      1.363191
  H       0.379220     -1.581351      2.437386
  H       0.189148     -2.339671      0.895908
  C       1.738322     -0.855077      0.901658
  H       2.396140     -1.712280      0.749486
  H       1.635602     -0.388309     -0.081241
  C       2.454625      0.089490      1.866901
  H       2.605031     -0.389890      2.837598
  H       3.439593      0.357104      1.478422
  H       1.910101      1.016615      2.038765
21
Coordinates from ORCA-job 15 Relaxed Surface Scan Step 5
  O      -1.365822     -0.776176     -0.303885
  C      -2.249504     -1.842585     -0.383391
  H      -3.136248     -1.676332      0.238221
  H      -2.567648     -1.936832     -1.420126
  H      -1.793558     -2.790078     -0.079178
  C      -0.836050     -0.500136      0.968730
  H      -1.590046     -0.754196      1.718076
  C      -0.649258      1.006485      1.048991
  H      -1.599539      1.487988      0.818689
  H      -0.342245      1.315947      2.047895
  H       0.086655      1.360795      0.327966
  C       0.407936     -1.380168      1.238420
  H       0.392705     -1.735215      2.273456
  H       0.271231     -2.280278      0.637805
  C       1.794959     -0.805048      0.910048
  H       2.478503     -1.642678      0.759703
  H       1.757857     -0.282294     -0.049076
  C       2.424174      0.089878      1.977965
  H       2.491629     -0.436334      2.933641
  H       3.438714      0.371181      1.687729
  H       1.869037      1.010876      2.146901
21
Coordinates from ORCA-job 15 Relaxed Surface Scan Step 6
  O      -1.459542     -0.794156     -0.296190
  C      -2.314617     -1.884703     -0.275032
  H      -3.140882     -1.734427      0.428869
  H      -2.730323     -2.004150     -1.273983
  H      -1.803482     -2.814535     -0.005099
  C      -0.821374     -0.474928      0.915146
  H      -1.512864     -0.696213      1.734210
  C      -0.621994      1.032497      0.907264
  H      -1.584484      1.508365      0.720950
  H      -0.243081      1.392761      1.862474
  H       0.061138      1.343054      0.117341
  C       0.441009     -1.358542      1.113219
  H       0.401243     -1.834315      2.097183
  H       0.345321     -2.175144      0.397280
  C       1.835476     -0.741014      0.921803
  H       2.528539     -1.560251      0.717271
  H       1.850625     -0.116576      0.025591
  C       2.395832      0.033137      2.114465
  H       2.423430     -0.597047      3.007073
  H       3.418319      0.358898      1.912166
  H       1.815191      0.922090      2.356581
21
Coordinates from ORCA-job 15 Relaxed Surface Scan Step 7
  O      -1.559934     -0.805709     -0.267117
  C      -2.342293     -1.940778     -0.144580
  H      -3.076712     -1.838737      0.662692
  H      -2.878295     -2.080467     -1.081697
  H      -1.750394     -2.841663      0.047076
  C      -0.810870     -0.421638      0.858532
  H      -1.433240     -0.577504      1.748265
  C      -0.588042      1.074512      0.704535
  H      -1.557198      1.568918      0.641653
  H      -0.040569      1.496669      1.545553
  H      -0.044435      1.293044     -0.214287
  C       0.460213     -1.308064      0.997602
  H       0.396155     -1.886157      1.924485
  H       0.408603     -2.032059      0.184384
  C       1.851140     -0.656981      0.948636
  H       2.556155     -1.428078      0.626098
  H       1.888109      0.110697      0.173735
  C       2.349283     -0.087536      2.275786
  H       2.405725     -0.870171      3.036386
  H       3.349149      0.337568      2.166514
  H       1.700933      0.698935      2.664331
21
Coordinates from ORCA-job 15 Relaxed Surface Scan Step 8
  O      -1.641292     -0.797158     -0.211857
  C      -2.341015     -1.975381     -0.025453
  H      -2.963557     -1.937019      0.876249
  H      -2.992344     -2.116710     -0.886171
  H      -1.684954     -2.848028      0.052171
  C      -0.791663     -0.377499      0.825645
  H      -1.338114     -0.479911      1.772587
  C      -0.554889      1.102091      0.569782
  H      -1.516672      1.613945      0.548017
  H       0.062280      1.559596      1.341552
  H      -0.075859      1.252628     -0.398057
  C       0.476510     -1.273611      0.884515
  H       0.389692     -1.967799      1.728098
  H       0.457915     -1.876436     -0.024158
  C       1.860441     -0.616288      0.972481
  H       2.583861     -1.353578      0.612048
  H       1.932123      0.220313      0.275554
  C       2.272077     -0.166107      2.372178
  H       2.296111     -1.012833      3.062486
  H       3.268210      0.280957      2.363903
  H       1.584620      0.573626      2.787010
21
Coordinates from ORCA-job 15 Relaxed Surface Scan Step 9
  O      -1.708296     -0.787119     -0.140002
  C      -2.323474     -2.002595      0.096716
  H      -2.796793     -2.031134      1.085487
  H      -3.097717     -2.135900     -0.656904
  H      -1.631469     -2.847118      0.026689
  C      -0.763876     -0.335774      0.796383
  H      -1.220655     -0.387066      1.794289
  C      -0.530246      1.125098      0.448559
  H      -1.488726      1.643327      0.441902
  H       0.123877      1.618258      1.166438
  H      -0.092646      1.217955     -0.546513
  C       0.495705     -1.235380      0.768635
  H       0.382851     -2.038615      1.507951
  H       0.508123     -1.704132     -0.217320
  C       1.867151     -0.590443      0.996321
  H       2.614162     -1.297988      0.624901
  H       1.978794      0.296456      0.370303
  C       2.178950     -0.241876      2.449251
  H       2.146488     -1.132485      3.081532
  H       3.175202      0.194566      2.544415
  H       1.466078      0.476764      2.859548
21
Coordinates from ORCA-job 15 Relaxed Surface Scan Step 10
  O      -1.743369     -0.791095     -0.076593
  C      -2.306307     -2.018319      0.224164
  H      -2.636366     -2.068269      1.268643
  H      -3.177414     -2.149392     -0.415616
  H      -1.622664     -2.852618      0.042454
  C      -0.724327     -0.307286      0.758745
  H      -1.088155     -0.326050      1.795495
  C      -0.520679      1.140505      0.344058
  H      -1.482421      1.652337      0.361010
  H       0.160860      1.665352      1.012528
  H      -0.127253      1.197250     -0.672512
  C       0.532250     -1.191896      0.644172
  H       0.396992     -2.089724      1.260318
  H       0.581121     -1.520989     -0.396905
  C       1.880812     -0.570242      1.017818
  H       2.657905     -1.251247      0.660091
  H       2.035810      0.356806      0.462533
  C       2.076489     -0.315863      2.510107
  H       1.975756     -1.240689      3.083423
  H       3.068975      0.091605      2.712250
  H       1.345464      0.394625      2.902396
21
Coordinates from ORCA-job 15 Relaxed Surface Scan Step 11
  O      -1.730903     -0.829027     -0.056162
  C      -2.302783     -2.018015      0.362612
  H      -2.582274     -1.982279      1.422015
  H      -3.206506     -2.175685     -0.223686
  H      -1.646245     -2.879770      0.211735
  C      -0.675548     -0.298640      0.701105
  H      -0.964832     -0.312566      1.760612
  C      -0.534713      1.148107      0.257228
  H      -1.505143      1.639291      0.323709
  H       0.172407      1.697527      0.878089
  H      -0.200868      1.199266     -0.780940
  C       0.596683     -1.137141      0.510355
  H       0.451792     -2.114366      0.983651
  H       0.694980     -1.319298     -0.563248
  C       1.907537     -0.546849      1.037105
  H       2.717490     -1.200021      0.701927
  H       2.101777      0.418732      0.564941
  C       1.980398     -0.398784      2.555013
  H       1.815169     -1.357463      3.053063
  H       2.960529     -0.030703      2.864354
  H       1.234536      0.302484      2.935104
21
Coordinates from ORCA-job 15 Relaxed Surface Scan Step 12
  O      -1.660819     -0.925961     -0.086562
  C      -2.312917     -1.977842      0.535134
  H      -2.784676     -1.662792      1.472764
  H      -3.091641     -2.331165     -0.138459
  H      -1.646200     -2.817527      0.754294
  C      -0.617686     -0.304718      0.618929
  H      -0.852698     -0.332334      1.689608
  C      -0.588819      1.146632      0.168774
  H      -1.568920      1.597746      0.324274
  H       0.148840      1.728146      0.722165
  H      -0.353940      1.208527     -0.895427
  C       0.694354     -1.053980      0.364160
  H       0.558432     -2.097886      0.661814
  H       0.854810     -1.064878     -0.717061
  C       1.947541     -0.511492      1.057202
  H       2.797514     -1.109121      0.717705
  H       2.153734      0.507048      0.718878
  C       1.905708     -0.541397      2.583841
  H       1.693432     -1.547849      2.953567
  H       2.864273     -0.231185      3.004144
  H       1.143163      0.126828      2.988838
21
Coordinates from ORCA-job 15 Relaxed Surface Scan Step 13
  O      -1.648004     -0.949667     -0.042090
  C      -2.216207     -1.954472      0.725353
  H      -2.667933     -1.555659      1.640508
  H      -2.998521     -2.425178      0.132621
  H      -1.493799     -2.725761      1.010373
  C      -0.592846     -0.230666      0.541491
  H      -0.765663     -0.177025      1.621190
  C      -0.646489      1.179374     -0.022266
  H      -1.605539      1.641226      0.213828
  H       0.147697      1.805138      0.387016
  H      -0.542681      1.151715     -1.108176
  C       0.740585     -0.937570      0.270931
  H       0.592690     -2.010543      0.407773
  H       0.981090     -0.806960     -0.787567
  C       1.933932     -0.492015      1.123335
  H       2.819038     -1.022071      0.762081
  H       2.138299      0.570025      0.961442
  C       1.797850     -0.759823      2.621724
  H       1.578127     -1.812798      2.815884
  H       2.726174     -0.516163      3.141937
  H       1.005682     -0.166305      3.081194
21
Coordinates from ORCA-job 15 Relaxed Surface Scan Step 14
  O      -1.644050     -0.930717      0.056502
  C      -2.071659     -1.890245      0.961146
  H      -2.435285     -1.434731      1.888999
  H      -2.891902     -2.439724      0.502808
  H      -1.283933     -2.605075      1.219246
  C      -0.575693     -0.120074      0.466662
  H      -0.686742      0.080100      1.537351
  C      -0.703629      1.200587     -0.273064
  H      -1.643890      1.690374     -0.018297
  H       0.118441      1.872934     -0.020936
  H      -0.691468      1.026578     -1.350122
  C       0.778440     -0.806685      0.213229
  H       0.625669     -1.886639      0.193677
  H       1.116048     -0.545305     -0.792925
  C       1.880132     -0.467348      1.223275
  H       2.833603     -0.834661      0.835620
  H       1.988289      0.619064      1.302762
  C       1.676960     -1.062642      2.615770
  H       1.611761     -2.152506      2.569203
  H       2.514026     -0.810680      3.269810
  H       0.768360     -0.697807      3.097864
21
Coordinates from ORCA-job 15 Relaxed Surface Scan Step 15
  O      -1.620184     -0.911236      0.149015
  C      -1.924536     -1.848175      1.123951
  H      -2.193792     -1.370030      2.072399
  H      -2.778474     -2.426419      0.775728
  H      -1.098449     -2.540015      1.314206
  C      -0.559733     -0.037657      0.427568
  H      -0.630044      0.264098      1.478461
  C      -0.769596      1.201976     -0.424655
  H      -1.724273      1.671231     -0.185661
  H       0.028755      1.927614     -0.257309
  H      -0.776938      0.932029     -1.481969
  C       0.814857     -0.696776      0.175774
  H       0.661870     -1.761832     -0.004719
  H       1.227037     -0.304968     -0.757157
  C       1.850029     -0.498322      1.288771
  H       2.823348     -0.836409      0.924321
  H       1.962137      0.571606      1.493713
  C       1.550875     -1.237026      2.591415
  H       1.489183     -2.315239      2.425321
  H       2.340552     -1.061881      3.324684
  H       0.610861     -0.917770      3.044725
21
Coordinates from ORCA-job 15 Relaxed Surface Scan Step 16
  O      -1.580367     -0.895854      0.233378
  C      -1.798907     -1.809444      1.252032
  H      -1.967164     -1.311875      2.213321
  H      -2.692883     -2.377147      0.999679
  H      -0.971074     -2.513245      1.369959
  C      -0.547011      0.036837      0.403462
  H      -0.602377      0.434119      1.423950
  C      -0.841221      1.179461     -0.553991
  H      -1.826912      1.598433     -0.350916
  H      -0.095859      1.970736     -0.454752
  H      -0.829531      0.818524     -1.583974
  C       0.852860     -0.578882      0.163231
  H       0.715614     -1.600008     -0.198028
  H       1.329125     -0.047839     -0.664061
  C       1.828536     -0.546004      1.347197
  H       2.802031     -0.898256      0.996676
  H       1.979174      0.494951      1.652134
  C       1.448837     -1.374886      2.571173
  H       1.342039     -2.431802      2.317066
  H       2.224606     -1.298762      3.335673
  H       0.513966     -1.044257      3.025375
21
Coordinates from ORCA-job 15 Relaxed Surface Scan Step 17
  O      -0.973687     -1.141787      0.907295
  C      -2.169590     -1.102984      1.606444
  H      -2.981467     -0.654402      1.026230
  H      -2.449695     -2.127739      1.843728
  H      -2.070597     -0.545186      2.544251
  C      -0.395170      0.083849      0.550274
  H      -0.557130      0.802264      1.365164
  C      -1.033613      0.637737     -0.719639
  H      -2.106514      0.788708     -0.594724
  H      -0.593701      1.599751     -0.988029
  H      -0.884447     -0.055405     -1.549404
  C       1.108155     -0.113544      0.384747
  H       1.280898     -0.812560     -0.439203
  H       1.522081      0.846309      0.064590
  C       1.866519     -0.582711      1.633840
  H       2.912356     -0.282052      1.525997
  H       1.492501     -0.039958      2.508173
  C       1.829428     -2.084700      1.907205
  H       2.241149     -2.642232      1.062078
  H       2.430704     -2.328573      2.786255
  H       0.815302     -2.439986      2.073312
21
Coordinates from ORCA-job 15 Relaxed Surface Scan Step 18
  O      -0.992592     -1.085897      0.932439
  C      -2.080180     -0.995780      1.786610
  H      -2.918425     -0.453251      1.336993
  H      -2.412766     -2.007431      2.012319
  H      -1.816569     -0.499710      2.726810
  C      -0.418302      0.117900      0.497501
  H      -0.652425      0.903920      1.225578
  C      -1.005669      0.525365     -0.847704
  H      -2.086101      0.662183     -0.778361
  H      -0.570109      1.463136     -1.198075
  H      -0.810381     -0.247935     -1.592310
  C       1.101585     -0.033431      0.444466
  H       1.378501     -0.639588     -0.423258
  H       1.513658      0.961962      0.256999
  C       1.738552     -0.621654      1.712837
  H       2.753096     -0.228936      1.812297
  H       1.195096     -0.262239      2.592127
  C       1.819253     -2.146544      1.745584
  H       2.428171     -2.518258      0.917200
  H       2.284937     -2.488629      2.672945
  H       0.834149     -2.600383      1.665584
21
Coordinates from ORCA-job 15 Relaxed Surface Scan Step 19
  O      -1.065319     -1.059893      0.841493
  C      -1.927764     -0.992546      1.925698
  H      -2.779117     -0.331456      1.729936
  H      -2.310947     -1.994783      2.110019
  H      -1.424916     -0.643154      2.832617
  C      -0.462370      0.138147      0.422665
  H      -0.781268      0.943239      1.092738
  C      -0.953269      0.475357     -0.977431
  H      -2.036318      0.608589     -0.983258
  H      -0.492464      1.394150     -1.345846
  H      -0.708768     -0.335523     -1.665272
  C       1.066279      0.038363      0.491180
  H       1.442388     -0.481573     -0.395023
  H       1.454164      1.058494      0.418382
  C       1.628822     -0.633198      1.752904
  H       2.635409     -0.251472      1.935650
  H       1.039658     -0.331630      2.623827
  C       1.715225     -2.157179      1.686328
  H       2.378708     -2.468524      0.875185
  H       2.123588     -2.561337      2.615713
  H       0.741759     -2.609271      1.511075
21
Coordinates from ORCA-job 15 Relaxed Surface Scan Step 20
  O      -1.098408     -1.009046      0.921227
  C      -1.904677     -0.874210      2.042408
  H      -2.766827     -0.227420      1.846221
  H      -2.273940     -1.863271      2.308205
  H      -1.361387     -0.467204      2.900011
  C      -0.491608      0.155943      0.423027
  H      -0.890915      1.011474      0.975491
  C      -0.891203      0.325165     -1.034383
  H      -1.973969      0.421723     -1.127504
  H      -0.426141      1.213727     -1.466473
  H      -0.576502     -0.545392     -1.612179
  C       1.041816      0.134148      0.601325
  H       1.517535     -0.221293     -0.317459
  H       1.367895      1.172601      0.707748
  C       1.577224     -0.688809      1.781676
  H       2.570657     -0.316849      2.040511
  H       0.961088     -0.517812      2.667516
  C       1.695630     -2.187918      1.512336
  H       2.385777     -2.376666      0.685604
  H       2.087286     -2.708345      2.389611
  H       0.734149     -2.625748      1.253661
21
Coordinates from ORCA-job 15 Relaxed Surface Scan Step 21
  O      -1.118761     -0.950727      1.057895
  C      -1.959708     -0.705130      2.132195
  H      -2.818567     -0.089815      1.842800
  H      -2.330912     -1.663302      2.491835
  H      -1.443356     -0.204162      2.957335
  C      -0.505171      0.161031      0.457434
  H      -0.962821      1.064643      0.870219
  C      -0.811465      0.124800     -1.031508
  H      -1.888975      0.143546     -1.201524
  H      -0.364219      0.979673     -1.542823
  H      -0.412595     -0.789371     -1.474763
  C       1.019746      0.221855      0.742100
  H       1.570686      0.071957     -0.190735
  H       1.262347      1.239299      1.059267
  C       1.565879     -0.761635      1.783801
  H       2.549773     -0.402632      2.097844
  H       0.942124     -0.744148      2.679851
  C       1.713422     -2.197439      1.286420
  H       2.392686     -2.243797      0.430751
  H       2.128893     -2.837352      2.068436
  H       0.754477     -2.612494      0.981753
21
Coordinates from ORCA-job 15 Relaxed Surface Scan Step 22
  O      -0.991491     -0.539661      1.776175
  C      -2.354360     -0.392286      1.978363
  H      -2.947818     -0.765070      1.138719
  H      -2.622291     -0.966811      2.863260
  H      -2.625388      0.655274      2.151327
  C      -0.393718      0.245087      0.782262
  H      -0.782512      1.268250      0.869401
  C      -0.732787     -0.248852     -0.623180
  H      -1.808556     -0.225950     -0.802347
  H      -0.266027      0.397228     -1.368737
  H      -0.385981     -1.267560     -0.788348
  C       1.113689      0.319516      1.072946
  H       1.623323      0.628243      0.155231
  H       1.271981      1.124410      1.794694
  C       1.790127     -0.930289      1.646313
  H       2.822293     -0.650130      1.879167
  H       1.317696     -1.176465      2.597493
  C       1.806569     -2.172905      0.760927
  H       2.216022     -1.959328     -0.230180
  H       2.426446     -2.951360      1.210883
  H       0.806265     -2.586538      0.634212
21
Coordinates from ORCA-job 15 Relaxed Surface Scan Step 23
  O      -1.107750     -0.286017      1.961534
  C      -2.477291     -0.088696      2.038166
  H      -3.030949     -0.697577      1.317852
  H      -2.798047     -0.373218      3.038776
  H      -2.744051      0.961970      1.876311
  C      -0.441075      0.222437      0.839430
  H      -0.726621      1.276681      0.716965
  C      -0.828948     -0.521690     -0.436628
  H      -1.862759     -0.315649     -0.717226
  H      -0.196873     -0.212190     -1.270326
  H      -0.727882     -1.598714     -0.304727
  C       1.055289      0.224951      1.158810
  H       1.588093      0.633123      0.294227
  H       1.186678      0.941550      1.971971
  C       1.696190     -1.102652      1.589083
  H       2.557678     -0.858949      2.217242
  H       0.999095     -1.641527      2.232354
  C       2.183616     -2.010637      0.460742
  H       2.894725     -1.489224     -0.185382
  H       2.693176     -2.886455      0.868272
  H       1.371189     -2.372717     -0.168865
21
Coordinates from ORCA-job 15 Relaxed Surface Scan Step 24
  O      -1.161535     -0.273942      1.966915
  C      -2.498214      0.070395      2.083991
  H      -3.127775     -0.421442      1.336498
  H      -2.836702     -0.243135      3.069897
  H      -2.645284      1.152852      1.996701
  C      -0.474203      0.163508      0.825704
  H      -0.762947      1.202427      0.619648
  C      -0.837526     -0.673465     -0.397171
  H      -1.886377     -0.541339     -0.666227
  H      -0.238188     -0.377878     -1.259984
  H      -0.674705     -1.733902     -0.205370
  C       1.013347      0.183655      1.180450
  H       1.565438      0.652048      0.359726
  H       1.103208      0.857534      2.034264
  C       1.653037     -1.165745      1.547463
  H       2.421762     -0.983003      2.302133
  H       0.905462     -1.794165      2.034874
  C       2.307183     -1.919460      0.390093
  H       3.097390     -1.320402     -0.069798
  H       2.762869     -2.847166      0.743028
  H       1.597242     -2.182575     -0.394253
