24
Coordinates from ORCA-job 16 Relaxed Surface Scan Step 1
  C      75.353808    -16.720540     -2.565206
  H      75.882400    -17.383413     -1.878696
  H      75.115440    -17.329429     -3.439946
  C      76.293931    -15.571161     -2.940905
  H      76.468468    -15.004478     -2.026225
  O      75.667819    -14.631343     -3.781582
  C      77.685546    -15.980954     -3.500638
  H      78.449517    -15.556507     -2.845420
  H      77.819716    -15.467659     -4.453888
  C      78.001413    -17.466462     -3.691755
  H      77.945798    -17.988756     -2.733076
  H      77.254737    -17.934628     -4.337948
  C      75.190820    -15.046133     -5.016100
  H      74.922794    -14.153175     -5.578352
  H      75.938526    -15.597323     -5.594240
  H      74.298644    -15.672809     -4.931372
  C      74.064994    -16.240312     -1.904054
  H      73.495459    -15.584596     -2.562085
  H      73.428684    -17.085422     -1.634061
  H      74.278526    -15.679905     -0.990871
  C      79.386798    -17.687359     -4.292683
  H      80.166980    -17.261308     -3.657357
  H      79.600317    -18.751374     -4.411435
  H      79.471575    -17.219870     -5.276633
24
Coordinates from ORCA-job 16 Relaxed Surface Scan Step 2
  C      75.366703    -16.686185     -2.467872
  H      75.909586    -17.297385     -1.746024
  H      75.148500    -17.351559     -3.305362
  C      76.280346    -15.541713     -2.914749
  H      76.425740    -14.896327     -2.046378
  O      75.640745    -14.694158     -3.838563
  C      77.690254    -15.967038     -3.399582
  H      78.406406    -15.725294     -2.612421
  H      77.954935    -15.307790     -4.228953
  C      77.924699    -17.424527     -3.806944
  H      77.782151    -18.074928     -2.938202
  H      77.190391    -17.741836     -4.551654
  C      75.284570    -15.191908     -5.082721
  H      74.901386    -14.357631     -5.667749
  H      76.134043    -15.620058     -5.622755
  H      74.499629    -15.951333     -5.024088
  C      74.061362    -16.199097     -1.846928
  H      73.485171    -15.600050     -2.551903
  H      73.442163    -17.040945     -1.530781
  H      74.251514    -15.577818     -0.968652
  C      79.327478    -17.648649     -4.364777
  H      80.092699    -17.372504     -3.635278
  H      79.484617    -18.696096     -4.629311
  H      79.497623    -17.050090     -5.262879
24
Coordinates from ORCA-job 16 Relaxed Surface Scan Step 3
  C      75.373831    -16.657394     -2.374898
  H      75.934056    -17.201739     -1.611290
  H      75.167223    -17.385690     -3.161754
  C      76.264492    -15.532188     -2.907420
  H      76.398150    -14.818736     -2.092479
  O      75.609159    -14.766814     -3.889311
  C      77.679612    -15.977449     -3.331560
  H      78.326770    -15.904687     -2.453978
  H      78.056186    -15.224640     -4.029017
  C      77.861033    -17.377854     -3.925619
  H      77.607556    -18.127977     -3.171003
  H      77.173326    -17.541175     -4.758362
  C      75.368006    -15.303161     -5.144706
  H      74.787230    -14.570122     -5.702003
  H      76.289900    -15.494383     -5.700838
  H      74.791330    -16.231823     -5.106658
  C      74.059156    -16.153883     -1.788279
  H      73.472588    -15.620694     -2.536250
  H      73.457060    -16.982859     -1.410956
  H      74.235776    -15.466056     -0.958012
  C      79.289408    -17.621850     -4.404672
  H      80.006896    -17.499194     -3.589682
  H      79.406500    -18.632824     -4.799705
  H      79.567466    -16.921727     -5.196074
24
Coordinates from ORCA-job 16 Relaxed Surface Scan Step 4
  C      75.386218    -16.629919     -2.308355
  H      75.950158    -17.098120     -1.495444
  H      75.195422    -17.422037     -3.035838
  C      76.268961    -15.537195     -2.916487
  H      76.413696    -14.781397     -2.144249
  O      75.607376    -14.814231     -3.924552
  C      77.682049    -16.008740     -3.300631
  H      78.247537    -16.093680     -2.367036
  H      78.150667    -15.194928     -3.861439
  C      77.853250    -17.326787     -4.063427
  H      77.456750    -18.152043     -3.468291
  H      77.278578    -17.321877     -4.990369
  C      75.334464    -15.386063     -5.157718
  H      74.637582    -14.725899     -5.671924
  H      76.229217    -15.477922     -5.778938
  H      74.868083    -16.371858     -5.077370
  C      74.059950    -16.101780     -1.771129
  H      73.466710    -15.645124     -2.563144
  H      73.471160    -16.906514     -1.326325
  H      74.220434    -15.342388     -1.002317
  C      79.316362    -17.613559     -4.391333
  H      79.923294    -17.665733     -3.484186
  H      79.424031    -18.564322     -4.917026
  H      79.740760    -16.832803     -5.027000
24
Coordinates from ORCA-job 16 Relaxed Surface Scan Step 5
  C      75.415309    -16.597258     -2.272797
  H      75.972828    -16.993188     -1.417943
  H      75.248484    -17.445279     -2.940307
  C      76.296742    -15.533682     -2.935590
  H      76.446541    -14.750792     -2.191523
  O      75.641183    -14.842596     -3.968486
  C      77.710330    -16.022312     -3.287263
  H      78.193927    -16.259116     -2.333593
  H      78.253913    -15.168365     -3.701110
  C      77.891031    -17.226687     -4.216555
  H      77.308300    -18.077148     -3.856795
  H      77.513494    -17.001046     -5.213876
  C      75.218532    -15.480299     -5.126573
  H      74.415174    -14.881432     -5.554413
  H      76.014726    -15.551117     -5.871072
  H      74.829235    -16.484683     -4.945053
  C      74.072720    -16.054352     -1.792992
  H      73.474540    -15.678025     -2.622767
  H      73.497137    -16.832046     -1.287072
  H      74.210250    -15.230264     -1.089344
  C      79.354840    -17.645284     -4.332310
  H      79.762955    -17.935713     -3.361235
  H      79.470092    -18.495112     -5.007888
  H      79.970426    -16.829119     -4.717973
24
Coordinates from ORCA-job 16 Relaxed Surface Scan Step 6
  C      75.443103    -16.562320     -2.237926
  H      75.984997    -16.876608     -1.340589
  H      75.318081    -17.464118     -2.841858
  C      76.324951    -15.527924     -2.946849
  H      76.458190    -14.710729     -2.237077
  O      75.694521    -14.891651     -4.029815
  C      77.743776    -16.031687     -3.249592
  H      78.138044    -16.420150     -2.304925
  H      78.355180    -15.161320     -3.502174
  C      77.946265    -17.093108     -4.334504
  H      77.228692    -17.908835     -4.221423
  H      77.758881    -16.655866     -5.315569
  C      75.128036    -15.599417     -5.082817
  H      74.348337    -14.972455     -5.514626
  H      75.851337    -15.822535     -5.868824
  H      74.667741    -16.538253     -4.769796
  C      74.077140    -16.019570     -1.827508
  H      73.479870    -15.726060     -2.690590
  H      73.513672    -16.770103     -1.269636
  H      74.181733    -15.139276     -1.189527
  C      79.359909    -17.669393     -4.319973
  H      79.573214    -18.175798     -3.375565
  H      79.499249    -18.394414     -5.124250
  H      80.107787    -16.883329     -4.449116
24
Coordinates from ORCA-job 16 Relaxed Surface Scan Step 7
  C      75.421249    -16.523693     -2.189935
  H      75.943193    -16.776739     -1.261367
  H      75.301449    -17.465493     -2.732591
  C      76.334913    -15.552238     -2.946373
  H      76.464814    -14.695049     -2.285651
  O      75.750337    -14.974958     -4.087431
  C      77.749234    -16.112564     -3.181381
  H      78.022158    -16.666443     -2.277854
  H      78.439894    -15.267842     -3.246346
  C      77.994446    -17.005353     -4.398760
  H      77.251159    -17.803246     -4.458568
  H      77.881425    -16.411365     -5.306575
  C      75.100503    -15.726166     -5.060585
  H      74.391527    -15.065334     -5.558661
  H      75.785544    -16.113568     -5.815621
  H      74.541055    -16.567794     -4.649856
  C      74.056249    -15.939166     -1.836629
  H      73.471677    -15.691100     -2.722067
  H      73.475683    -16.645903     -1.240389
  H      74.165710    -15.022778     -1.252556
  C      79.388658    -17.626795     -4.386200
  H      79.527480    -18.275524     -3.517961
  H      79.560861    -18.228571     -5.280716
  H      80.163493    -16.857235     -4.350456
24
Coordinates from ORCA-job 16 Relaxed Surface Scan Step 8
  C      75.376474    -16.483302     -2.140626
  H      75.885228    -16.703739     -1.196490
  H      75.224766    -17.449683     -2.630621
  C      76.334659    -15.597034     -2.944426
  H      76.491249    -14.706833     -2.336161
  O      75.782829    -15.065827     -4.123836
  C      77.727822    -16.243300     -3.127372
  H      77.869647    -16.953318     -2.307396
  H      78.483307    -15.464979     -2.992745
  C      78.037737    -16.951533     -4.445788
  H      77.315584    -17.746443     -4.642206
  H      77.944832    -16.237479     -5.265476
  C      75.090192    -15.842265     -5.046949
  H      74.413228    -15.178140     -5.583699
  H      75.751042    -16.310097     -5.777409
  H      74.490922    -16.626828     -4.583423
  C      74.034848    -15.826482     -1.828510
  H      73.463476    -15.603663     -2.729114
  H      73.424157    -16.475597     -1.197828
  H      74.179296    -14.884695     -1.294527
  C      79.441933    -17.549834     -4.459486
  H      79.563760    -18.298856     -3.673209
  H      79.654171    -18.034704     -5.414390
  H      80.201552    -16.780285     -4.302844
24
Coordinates from ORCA-job 16 Relaxed Surface Scan Step 9
  C      75.293414    -16.479322     -2.145287
  H      75.802820    -16.818696     -1.240418
  H      74.996610    -17.388768     -2.676014
  C      76.311705    -15.687952     -2.970772
  H      76.510089    -14.771645     -2.414892
  O      75.799213    -15.214149     -4.191645
  C      77.677451    -16.421308     -3.112709
  H      77.688614    -17.292265     -2.451805
  H      78.451060    -15.752905     -2.725824
  C      78.115320    -16.862952     -4.510109
  H      77.463475    -17.656550     -4.881162
  H      78.013129    -16.027219     -5.203767
  C      75.016780    -16.024463     -5.005928
  H      74.962157    -15.540967     -5.980156
  H      75.432409    -17.022581     -5.147357
  H      73.997894    -16.133414     -4.626721
  C      74.063771    -15.670187     -1.741259
  H      73.533758    -15.269240     -2.604587
  H      73.363191    -16.283812     -1.171431
  H      74.348264    -14.822824     -1.113301
  C      79.554889    -17.369807     -4.528181
  H      79.687635    -18.219950     -3.854286
  H      79.844786    -17.693867     -5.529720
  H      80.254276    -16.590074     -4.217200
24
Coordinates from ORCA-job 16 Relaxed Surface Scan Step 10
  C      75.267964    -16.434565     -2.112497
  H      75.768521    -16.790144     -1.213005
  H      74.906083    -17.337909     -2.610517
  C      76.300326    -15.735506     -3.000033
  H      76.542457    -14.781343     -2.528734
  O      75.764217    -15.354181     -4.244523
  C      77.637803    -16.521042     -3.121074
  H      77.563292    -17.511121     -2.663132
  H      78.379431    -15.995581     -2.512517
  C      78.198808    -16.671514     -4.535173
  H      77.509339    -17.266041     -5.140304
  H      78.253734    -15.692057     -5.012950
  C      74.975561    -16.231240     -4.978222
  H      74.947676    -15.860932     -6.002070
  H      75.368286    -17.249892     -4.997584
  H      73.948446    -16.274115     -4.606722
  C      74.094947    -15.542238     -1.717340
  H      73.579057    -15.142131     -2.590160
  H      73.367612    -16.093782     -1.118352
  H      74.436802    -14.691713     -1.123186
  C      79.574440    -17.331107     -4.550618
  H      79.544934    -18.328337     -4.104102
  H      79.948514    -17.437169     -5.570888
  H      80.304458    -16.741257     -3.990827
24
Coordinates from ORCA-job 16 Relaxed Surface Scan Step 11
  C      75.252147    -16.381387     -2.064767
  H      75.748365    -16.703770     -1.151993
  H      74.839897    -17.296365     -2.497726
  C      76.287533    -15.790107     -3.023198
  H      76.611827    -14.825368     -2.623840
  O      75.711033    -15.460197     -4.263214
  C      77.568834    -16.646362     -3.158618
  H      77.398575    -17.703730     -2.938120
  H      78.256972    -16.316174     -2.374264
  C      78.258613    -16.524307     -4.516916
  H      77.583506    -16.899030     -5.291739
  H      78.423750    -15.469725     -4.749332
  C      74.966677    -16.408845     -4.951757
  H      74.889277    -16.073605     -5.985084
  H      75.431196    -17.398471     -4.949100
  H      73.953821    -16.510958     -4.553248
  C      74.125725    -15.413626     -1.714667
  H      73.609275    -15.059919     -2.607085
  H      73.389779    -15.888475     -1.062819
  H      74.513699    -14.535930     -1.192716
  C      79.582053    -17.279707     -4.580687
  H      79.443099    -18.345601     -4.382248
  H      80.042323    -17.184883     -5.566197
  H      80.294734    -16.898375     -3.845194
24
Coordinates from ORCA-job 16 Relaxed Surface Scan Step 12
  C      75.271531    -16.328457     -2.018442
  H      75.807584    -16.559323     -1.098304
  H      74.846950    -17.279478     -2.351311
  C      76.269675    -15.821475     -3.061053
  H      76.655188    -14.855133     -2.724044
  O      75.640006    -15.524914     -4.282233
  C      77.494167    -16.735323     -3.226893
  H      77.223217    -17.795016     -3.228215
  H      78.114445    -16.604409     -2.334700
  C      78.318379    -16.421973     -4.474607
  H      77.697032    -16.581009     -5.359857
  H      78.576617    -15.359309     -4.480437
  C      74.939424    -16.523845     -4.944429
  H      74.748872    -16.170422     -5.956583
  H      75.499547    -17.460540     -5.011305
  H      73.975635    -16.738348     -4.474820
  C      74.153083    -15.335778     -1.715784
  H      73.591124    -15.080616     -2.614109
  H      73.454775    -15.745343     -0.983269
  H      74.555540    -14.406104     -1.307063
  C      79.589391    -17.258545     -4.578557
  H      79.361362    -18.327171     -4.606566
  H      80.147355    -17.016563     -5.485242
  H      80.251812    -17.085823     -3.726705
24
Coordinates from ORCA-job 16 Relaxed Surface Scan Step 13
  C      75.316103    -16.265968     -1.982363
  H      75.917743    -16.365516     -1.075809
  H      74.924088    -17.266107     -2.187870
  C      76.247199    -15.822624     -3.113789
  H      76.654278    -14.846285     -2.841471
  O      75.557360    -15.567326     -4.311232
  C      77.432208    -16.773477     -3.301396
  H      77.080254    -17.791787     -3.493463
  H      77.968548    -16.822293     -2.349136
  C      78.397303    -16.344068     -4.404626
  H      77.859235    -16.275898     -5.352105
  H      78.755523    -15.332169     -4.192618
  C      74.894893    -16.603751     -4.953686
  H      74.456665    -16.190997     -5.860637
  H      75.565196    -17.417870     -5.242453
  H      74.086859    -17.025694     -4.349986
  C      74.165632    -15.298739     -1.723087
  H      73.528537    -15.189496     -2.600564
  H      73.544831    -15.645409     -0.894633
  H      74.539635    -14.305217     -1.465636
  C      79.590030    -17.282693     -4.556973
  H      79.268276    -18.296915     -4.806735
  H      80.259637    -16.944432     -5.350088
  H      80.172676    -17.340187     -3.634175
24
Coordinates from ORCA-job 16 Relaxed Surface Scan Step 14
  C      75.364889    -16.207065     -1.977087
  H      76.029939    -16.204252     -1.106875
  H      75.006892    -17.236269     -2.074822
  C      76.221733    -15.820843     -3.186490
  H      76.624393    -14.827425     -2.986028
  O      75.471738    -15.621168     -4.358671
  C      77.386429    -16.793593     -3.385029
  H      76.995625    -17.744941     -3.759745
  H      77.818291    -17.013574     -2.404967
  C      78.491634    -16.279896     -4.305464
  H      78.068578    -15.982021     -5.265203
  H      78.917134    -15.369566     -3.871805
  C      74.807247    -16.686746     -4.948886
  H      74.188095    -16.277034     -5.745100
  H      75.491219    -17.413482     -5.395505
  H      74.153374    -17.216963     -4.251140
  C      74.190441    -15.267355     -1.728610
  H      73.494007    -15.266508     -2.567046
  H      73.640111    -15.560366     -0.832370
  H      74.533004    -14.239653     -1.588275
  C      79.605021    -17.297783     -4.532022
  H      79.223116    -18.204252     -5.008270
  H      80.387292    -16.891166     -5.175846
  H      80.072505    -17.592995     -3.589270
24
Coordinates from ORCA-job 16 Relaxed Surface Scan Step 15
  C      75.404869    -16.202972     -2.036992
  H      76.122163    -16.194533     -1.209056
  H      75.016473    -17.225010     -2.084608
  C      76.199624    -15.873279     -3.302691
  H      76.599742    -14.868262     -3.169208
  O      75.402866    -15.731639     -4.453953
  C      77.366068    -16.848878     -3.521933
  H      77.013629    -17.688714     -4.126279
  H      77.666033    -17.276241     -2.561471
  C      78.593795    -16.219784     -4.178596
  H      78.300801    -15.711131     -5.097592
  H      78.987737    -15.441418     -3.517262
  C      74.584203    -16.772248     -4.868549
  H      74.103091    -16.452210     -5.791096
  H      75.135947    -17.691936     -5.079732
  H      73.800949    -17.006316     -4.142696
  C      74.275559    -15.221722     -1.742106
  H      73.535012    -15.205212     -2.541603
  H      73.763847    -15.483463     -0.813839
  H      74.660286    -14.205038     -1.634346
  C      79.697549    -17.227106     -4.483195
  H      79.353168    -17.992524     -5.182950
  H      80.566489    -16.738898     -4.928704
  H      80.032809    -17.736383     -3.576072
24
Coordinates from ORCA-job 16 Relaxed Surface Scan Step 16
  C      75.455641    -16.186270     -2.089760
  H      76.225200    -16.184677     -1.311908
  H      75.036697    -17.197117     -2.090446
  C      76.163425    -15.905022     -3.416894
  H      76.577711    -14.898877     -3.346390
  O      75.281267    -15.801766     -4.508173
  C      77.319524    -16.887881     -3.695804
  H      77.029845    -17.556411     -4.508337
  H      77.491401    -17.526806     -2.825094
  C      78.631068    -16.196536     -4.066942
  H      78.459901    -15.535485     -4.920141
  H      78.941519    -15.548849     -3.240569
  C      74.429445    -16.856321     -4.803234
  H      73.954888    -16.630824     -5.756712
  H      74.953267    -17.810820     -4.904427
  H      73.642305    -16.980836     -4.054682
  C      74.377387    -15.167155     -1.737918
  H      73.588290    -15.138813     -2.489138
  H      73.918865    -15.400718     -0.774997
  H      74.798178    -14.161331     -1.670301
  C      79.757483    -17.170495     -4.394255
  H      79.497375    -17.804975     -5.245018
  H      80.678095    -16.640505     -4.646077
  H      79.973934    -17.826428     -3.547310
24
Coordinates from ORCA-job 16 Relaxed Surface Scan Step 17
  C      75.522520    -16.155975     -2.139191
  H      76.341599    -16.148542     -1.415947
  H      75.098665    -17.163311     -2.092120
  C      76.124727    -15.905393     -3.523317
  H      76.541200    -14.897058     -3.513997
  O      75.150567    -15.843579     -4.535097
  C      77.270424    -16.881605     -3.868562
  H      77.054615    -17.357410     -4.825841
  H      77.326547    -17.688308     -3.131614
  C      78.630968    -16.191443     -3.969941
  H      78.573381    -15.419989     -4.745277
  H      78.846221    -15.667307     -3.032992
  C      74.331688    -16.941981     -4.753553
  H      73.775855    -16.754785     -5.670722
  H      74.896085    -17.869948     -4.882867
  H      73.610075    -17.093754     -3.946091
  C      74.475234    -15.125835     -1.730269
  H      73.636369    -15.109357     -2.425957
  H      74.084554    -15.340146     -0.733549
  H      74.902240    -14.120513     -1.710834
  C      79.774796    -17.148074     -4.287143
  H      79.608754    -17.661506     -5.237286
  H      80.725884    -16.617028     -4.359451
  H      79.879741    -17.912068     -3.512910
24
Coordinates from ORCA-job 16 Relaxed Surface Scan Step 18
  C      75.591981    -16.115064     -2.183584
  H      76.454562    -16.084517     -1.514751
  H      75.186569    -17.126582     -2.091290
  C      76.088576    -15.884625     -3.612652
  H      76.481104    -14.867434     -3.662226
  O      75.038748    -15.880705     -4.546687
  C      77.231165    -16.836629     -4.014851
  H      77.088283    -17.127312     -5.056596
  H      77.193036    -17.759525     -3.427742
  C      78.613572    -16.196834     -3.879508
  H      78.662402    -15.333922     -4.553521
  H      78.743468    -15.802661     -2.866522
  C      74.281547    -17.031234     -4.714230
  H      73.638909    -16.873480     -5.578683
  H      74.896813    -17.914942     -4.906058
  H      73.642133    -17.241901     -3.852347
  C      74.556168    -15.094182     -1.724786
  H      73.674376    -15.106239     -2.365382
  H      74.234807    -15.295934     -0.701021
  H      74.965402    -14.081608     -1.751236
  C      79.757400    -17.153488     -4.197864
  H      79.675126    -17.542623     -5.215544
  H      80.724976    -16.655529     -4.110631
  H      79.761585    -18.007947     -3.516818
24
Coordinates from ORCA-job 16 Relaxed Surface Scan Step 19
  C      75.651621    -16.050363     -2.213572
  H      76.542883    -15.956222     -1.590132
  H      75.296747    -17.074174     -2.065540
  C      76.062160    -15.852724     -3.674976
  H      76.411584    -14.824415     -3.785703
  O      74.962312    -15.921979     -4.546765
  C      77.209260    -16.776791     -4.111005
  H      77.138761    -16.906879     -5.193097
  H      77.092670    -17.771167     -3.668589
  C      78.597269    -16.228310     -3.776934
  H      78.732369    -15.275121     -4.298862
  H      78.667868    -16.004781     -2.708606
  C      74.272963    -17.119203     -4.676747
  H      73.536951    -16.983514     -5.467256
  H      74.924295    -17.950501     -4.960033
  H      73.739432    -17.398712     -3.763775
  C      74.593209    -15.060318     -1.738353
  H      73.681399    -15.138682     -2.330268
  H      74.335426    -15.235994     -0.692057
  H      74.951756    -14.031914     -1.824182
  C      79.726045    -17.178392     -4.163982
  H      79.706399    -17.400499     -5.233543
  H      80.701820    -16.747031     -3.932632
  H      79.647511    -18.127231     -3.627921
24
Coordinates from ORCA-job 16 Relaxed Surface Scan Step 20
  C      75.697453    -15.955442     -2.227481
  H      76.594861    -15.746391     -1.641926
  H      75.427473    -16.990284     -1.997780
  C      76.054217    -15.824437     -3.711090
  H      76.371099    -14.794122     -3.884479
  O      74.927559    -15.961892     -4.540385
  C      77.201572    -16.740760     -4.152035
  H      77.207001    -16.746298     -5.245268
  H      77.009723    -17.770606     -3.835164
  C      78.583118    -16.313824     -3.654409
  H      78.767273    -15.275776     -3.948469
  H      78.613464    -16.330689     -2.562152
  C      74.289562    -17.190815     -4.631833
  H      73.435475    -17.060648     -5.294100
  H      74.932032    -17.966122     -5.057640
  H      73.917061    -17.546627     -3.667049
  C      74.579039    -15.017064     -1.785633
  H      73.653557    -15.216953     -2.325030
  H      74.379730    -15.125263     -0.717605
  H      74.846049    -13.973969     -1.970188
  C      79.705715    -17.195172     -4.193878
  H      79.740090    -17.168726     -5.285454
  H      80.678305    -16.866234     -3.822981
  H      79.571281    -18.236801     -3.892501
24
Coordinates from ORCA-job 16 Relaxed Surface Scan Step 21
  C      75.747339    -15.874672     -2.258083
  H      76.647598    -15.565650     -1.722075
  H      75.557919    -16.908655     -1.953830
  C      76.050252    -15.809110     -3.758203
  H      76.339583    -14.781644     -3.987205
  O      74.902245    -16.000205     -4.546053
  C      77.197773    -16.722804     -4.199936
  H      77.286769    -16.621008     -5.285575
  H      76.942997    -17.768710     -4.005597
  C      78.549775    -16.420278     -3.551841
  H      78.749263    -15.345675     -3.600956
  H      78.518669    -16.672652     -2.489364
  C      74.281457    -17.241081     -4.573950
  H      73.358999    -17.125879     -5.140508
  H      74.888861    -18.002450     -5.070202
  H      74.021515    -17.607026     -3.576637
  C      74.583355    -14.985325     -1.832555
  H      73.651593    -15.286189     -2.310561
  H      74.438477    -15.027445     -0.751201
  H      74.767260    -13.943215     -2.103584
  C      79.701616    -17.178379     -4.204875
  H      79.808100    -16.907703     -5.257783
  H      80.649047    -16.960858     -3.708101
  H      79.542245    -18.258302     -4.155855
24
Coordinates from ORCA-job 16 Relaxed Surface Scan Step 22
  C      75.797723    -15.813461     -2.303321
  H      76.700222    -15.426455     -1.821993
  H      75.680927    -16.840741     -1.944232
  C      76.040405    -15.792025     -3.815933
  H      76.278259    -14.761777     -4.083584
  O      74.874975    -16.044359     -4.560165
  C      77.205227    -16.675883     -4.279764
  H      77.388378    -16.440015     -5.333055
  H      76.910100    -17.727632     -4.246009
  C      78.504849    -16.518622     -3.488111
  H      78.713947    -15.459821     -3.316932
  H      78.386373    -16.960494     -2.495980
  C      74.261478    -17.287480     -4.495666
  H      73.309120    -17.202033     -5.016265
  H      74.843932    -18.070451     -4.987916
  H      74.058037    -17.606922     -3.469854
  C      74.603663    -14.969311     -1.868333
  H      73.669877    -15.341893     -2.288259
  H      74.507716    -14.966376     -0.780732
  H      74.717102    -13.933327     -2.195469
  C      79.700561    -17.167171     -4.178776
  H      79.893984    -16.707859     -5.150804
  H      80.606243    -17.067324     -3.577525
  H      79.529613    -18.233488     -4.345850
24
Coordinates from ORCA-job 16 Relaxed Surface Scan Step 23
  C      75.823497    -15.770818     -2.347713
  H      76.724221    -15.340679     -1.900242
  H      75.751510    -16.793857     -1.966700
  C      76.019145    -15.760131     -3.867017
  H      76.159540    -14.717391     -4.147541
  O      74.857605    -16.114984     -4.577292
  C      77.237278    -16.551715     -4.383277
  H      77.522140    -16.114425     -5.346228
  H      76.936718    -17.578844     -4.597165
  C      78.464122    -16.602611     -3.471103
  H      78.708883    -15.604292     -3.103814
  H      78.234987    -17.194571     -2.581681
  C      74.265623    -17.352529     -4.369288
  H      73.408060    -17.412755     -5.037075
  H      74.930274    -18.188533     -4.601209
  H      73.905824    -17.480648     -3.344944
  C      74.616677    -14.954874     -1.892092
  H      73.682412    -15.349399     -2.289960
  H      74.543433    -14.948372     -0.802757
  H      74.699406    -13.918021     -2.225711
  C      79.685600    -17.199772     -4.163010
  H      79.982448    -16.602766     -5.028365
  H      80.539334    -17.248797     -3.484411
  H      79.483969    -18.214131     -4.515933
24
Coordinates from ORCA-job 16 Relaxed Surface Scan Step 24
  C      75.831998    -15.685780     -2.370888
  H      76.720715    -15.209795     -1.949207
  H      75.810692    -16.701388     -1.967371
  C      75.989167    -15.697896     -3.894799
  H      76.024334    -14.653981     -4.200630
  O      74.842259    -16.177566     -4.555359
  C      77.263368    -16.388721     -4.447005
  H      77.651279    -15.764732     -5.258259
  H      76.968860    -17.326238     -4.920081
  C      78.404406    -16.688363     -3.472892
  H      78.711716    -15.780476     -2.950423
  H      78.059378    -17.376230     -2.697101
  C      74.371166    -17.449544     -4.264553
  H      73.593491    -17.680476     -4.990574
  H      75.144691    -18.218557     -4.343539
  H      73.931826    -17.515169     -3.265533
  C      74.598690    -14.914800     -1.907449
  H      73.677460    -15.351711     -2.291298
  H      74.537760    -14.901054     -0.817403
  H      74.634489    -13.878497     -2.251080
  C      79.617868    -17.295259     -4.171077
  H      80.020336    -16.617515     -4.927581
  H      80.416938    -17.509502     -3.458767
  H      79.359824    -18.231668     -4.671660
