24
Coordinates from ORCA-job 17 Relaxed Surface Scan Step 1
  C      -6.139232      2.629503     -0.130255
  H      -6.342988      2.862906      0.913301
  H      -5.682140      3.509895     -0.591352
  H      -7.093805      2.436652     -0.633325
  O      -5.313156      1.517973     -0.159770
  C      -5.048586      0.938085     -1.410371
  H      -5.987049      0.880591     -1.972980
  C      -4.062879      1.792995     -2.202896
  H      -3.804464      1.323286     -3.150542
  H      -4.473582      2.778314     -2.427115
  H      -3.147451      1.930381     -1.624351
  C      -4.530465     -0.479403     -1.134603
  H      -4.950103     -0.778444     -0.172567
  H      -3.446005     -0.433685     -0.999782
  C      -4.885103     -1.587599     -2.138157
  H      -4.258247     -2.448264     -1.885644
  H      -5.918797     -1.902817     -1.962404
  C      -4.728760     -1.304322     -3.632412
  H      -5.449359     -0.539520     -3.937912
  H      -3.732606     -0.904100     -3.840745
  C      -4.954130     -2.549464     -4.486076
  H      -5.951029     -2.966074     -4.322746
  H      -4.860297     -2.322194     -5.549811
  H      -4.227476     -3.329776     -4.247865
24
Coordinates from ORCA-job 17 Relaxed Surface Scan Step 2
  C      -6.128772      2.605237     -0.058735
  H      -6.276967      2.830583      0.995909
  H      -5.724436      3.499117     -0.542657
  H      -7.105671      2.386810     -0.505327
  O      -5.275196      1.517383     -0.141384
  C      -5.072576      0.945368     -1.407182
  H      -6.046514      0.852014     -1.905927
  C      -4.164795      1.830829     -2.257291
  H      -3.937385      1.364234     -3.214350
  H      -4.623239      2.798751     -2.464206
  H      -3.226183      2.006224     -1.728280
  C      -4.503779     -0.459797     -1.171364
  H      -4.831995     -0.758487     -0.175602
  H      -3.411352     -0.408489     -1.133123
  C      -4.941585     -1.552951     -2.152019
  H      -4.491223     -2.490901     -1.813119
  H      -6.024547     -1.693100     -2.065411
  C      -4.588320     -1.355246     -3.626231
  H      -5.122979     -0.488584     -4.024428
  H      -3.521414     -1.130815     -3.722473
  C      -4.926028     -2.573512     -4.480992
  H      -5.991064     -2.811928     -4.426547
  H      -4.678338     -2.402172     -5.530437
  H      -4.373348     -3.455652     -4.149201
24
Coordinates from ORCA-job 17 Relaxed Surface Scan Step 3
  C      -5.993616      2.644342      0.105034
  H      -5.975500      2.869335      1.169979
  H      -5.666227      3.537436     -0.435206
  H      -7.028774      2.429815     -0.184411
  O      -5.167036      1.553633     -0.109086
  C      -5.166545      0.976769     -1.389496
  H      -6.206383      0.896417     -1.735784
  C      -4.379665      1.849290     -2.362752
  H      -4.337431      1.408162     -3.356359
  H      -4.829063      2.837862     -2.464222
  H      -3.358759      1.977597     -1.998382
  C      -4.606656     -0.439441     -1.217930
  H      -4.941861     -0.766646     -0.233903
  H      -3.514517     -0.393585     -1.164082
  C      -5.042287     -1.499177     -2.236915
  H      -4.798197     -2.475457     -1.807919
  H      -6.134113     -1.486250     -2.326829
  C      -4.420662     -1.434320     -3.633101
  H      -4.747955     -0.534011     -4.156691
  H      -3.332958     -1.354059     -3.540590
  C      -4.766807     -2.649180     -4.489087
  H      -5.847588     -2.746920     -4.618197
  H      -4.320532     -2.573691     -5.482611
  H      -4.404576     -3.573005     -4.031836
24
Coordinates from ORCA-job 17 Relaxed Surface Scan Step 4
  C      -5.786562      2.674756      0.243451
  H      -5.414627      3.043583      1.197682
  H      -5.796739      3.510573     -0.463105
  H      -6.818689      2.334156      0.383383
  O      -4.958777      1.641551     -0.163148
  C      -5.274565      1.000210     -1.371692
  H      -6.365597      0.978649     -1.488063
  C      -4.681314      1.772036     -2.544918
  H      -5.029254      1.379950     -3.499689
  H      -4.974679      2.821424     -2.499481
  H      -3.591103      1.726596     -2.523327
  C      -4.784625     -0.439819     -1.215430
  H      -5.222905     -0.793119     -0.280053
  H      -3.703252     -0.419103     -1.052072
  C      -5.137027     -1.444239     -2.321467
  H      -5.125644     -2.439323     -1.867857
  H      -6.169474     -1.283727     -2.652337
  C      -4.210671     -1.490447     -3.539198
  H      -4.236326     -0.544311     -4.080928
  H      -3.179000     -1.616398     -3.196774
  C      -4.562690     -2.619641     -4.503458
  H      -5.580329     -2.510827     -4.886892
  H      -3.886388     -2.632961     -5.360469
  H      -4.497473     -3.594655     -4.014537
24
Coordinates from ORCA-job 17 Relaxed Surface Scan Step 5
  C      -5.732290      2.693561      0.255250
  H      -5.297268      3.093771      1.169284
  H      -5.810517      3.509807     -0.469524
  H      -6.744470      2.339293      0.480745
  O      -4.917712      1.663800     -0.185894
  C      -5.309398      0.986085     -1.350226
  H      -6.405516      0.926051     -1.375234
  C      -4.840223      1.740031     -2.589084
  H      -5.201831      1.268510     -3.503026
  H      -5.212775      2.765091     -2.582964
  H      -3.750016      1.778183     -2.621811
  C      -4.762278     -0.434314     -1.217393
  H      -5.134506     -0.807427     -0.262186
  H      -3.675586     -0.374174     -1.111566
  C      -5.140017     -1.419825     -2.335351
  H      -5.293026     -2.405927     -1.888890
  H      -6.109088     -1.142288     -2.764941
  C      -4.108566     -1.572050     -3.455647
  H      -3.907464     -0.605624     -3.922256
  H      -3.159754     -1.896461     -3.017701
  C      -4.535248     -2.568484     -4.528953
  H      -5.460924     -2.253875     -5.017381
  H      -3.771102     -2.668825     -5.302267
  H      -4.708131     -3.559994     -4.103364
24
Coordinates from ORCA-job 17 Relaxed Surface Scan Step 6
  C      -5.726198      2.685972      0.294873
  H      -5.275155      3.077735      1.204773
  H      -5.832406      3.512222     -0.414679
  H      -6.727848      2.314084      0.538397
  O      -4.908253      1.674513     -0.181353
  C      -5.325587      0.998481     -1.336497
  H      -6.418048      0.883973     -1.306691
  C      -4.946568      1.784960     -2.586923
  H      -5.273610      1.275076     -3.493656
  H      -5.406151      2.774127     -2.585893
  H      -3.863920      1.915808     -2.632216
  C      -4.700946     -0.393117     -1.272850
  H      -4.955706     -0.800063     -0.294211
  H      -3.613919     -0.276494     -1.270988
  C      -5.139686     -1.362394     -2.387260
  H      -5.471590     -2.302056     -1.938650
  H      -6.019723     -0.966879     -2.904875
  C      -4.052390     -1.678061     -3.415583
  H      -3.679027     -0.749586     -3.856772
  H      -3.198164     -2.126369     -2.899103
  C      -4.521266     -2.614120     -4.524174
  H      -5.347116     -2.176474     -5.090606
  H      -3.715114     -2.829703     -5.228159
  H      -4.869319     -3.566719     -4.117282
24
Coordinates from ORCA-job 17 Relaxed Surface Scan Step 7
  C      -5.765144      2.624102      0.380346
  H      -5.336737      2.953383      1.325255
  H      -5.872521      3.499478     -0.267217
  H      -6.764548      2.219580      0.576646
  O      -4.922008      1.663568     -0.154080
  C      -5.320971      1.046778     -1.347423
  H      -6.402776      0.862952     -1.310293
  C      -5.012664      1.938041     -2.546964
  H      -5.284431      1.452677     -3.484950
  H      -5.560487      2.879894     -2.497401
  H      -3.945894      2.167645     -2.572130
  C      -4.605699     -0.300702     -1.406513
  H      -4.711959     -0.758939     -0.421897
  H      -3.536876     -0.108670     -1.533189
  C      -5.117485     -1.258730     -2.500274
  H      -5.637006     -2.099991     -2.032667
  H      -5.870707     -0.762963     -3.119878
  C      -4.019471     -1.803697     -3.412631
  H      -3.520467     -0.965728     -3.910185
  H      -3.253452     -2.290787     -2.801371
  C      -4.531267     -2.784573     -4.461563
  H      -5.275723     -2.317741     -5.111383
  H      -3.719359     -3.146219     -5.095502
  H      -5.000056     -3.654442     -3.995116
24
Coordinates from ORCA-job 17 Relaxed Surface Scan Step 8
  C      -5.797488      2.532519      0.455790
  H      -5.419087      2.748707      1.453263
  H      -5.853867      3.474730     -0.097232
  H      -6.812575      2.130444      0.551325
  O      -4.939365      1.617217     -0.131785
  C      -5.309326      1.087841     -1.374748
  H      -6.374118      0.823895     -1.349126
  C      -5.088247      2.103273     -2.493077
  H      -5.296682      1.666792     -3.470424
  H      -5.734474      2.974945     -2.382535
  H      -4.051466      2.444563     -2.481035
  C      -4.497097     -0.189996     -1.575012
  H      -4.440878     -0.696680     -0.609360
  H      -3.472351      0.093728     -1.831033
  C      -5.070066     -1.147110     -2.630938
  H      -5.752760     -1.852312     -2.144137
  H      -5.676749     -0.599077     -3.357913
  C      -3.997398     -1.923800     -3.391606
  H      -3.374796     -1.206917     -3.937741
  H      -3.334589     -2.423820     -2.678487
  C      -4.562884     -2.950966     -4.366185
  H      -5.209803     -2.478125     -5.109422
  H      -3.765419     -3.468269     -4.903208
  H      -5.156223     -3.706667     -3.845751
24
Coordinates from ORCA-job 17 Relaxed Surface Scan Step 9
  C      -5.765573      2.454886      0.517947
  H      -5.345339      2.640484      1.504796
  H      -5.896672      3.419214      0.018276
  H      -6.753618      1.997661      0.644036
  O      -4.896963      1.614395     -0.159087
  C      -5.310119      1.119792     -1.403345
  H      -6.358613      0.803105     -1.331475
  C      -5.201050      2.192577     -2.483650
  H      -5.467310      1.796345     -3.463826
  H      -5.865139      3.034284     -2.283440
  H      -4.177971      2.570543     -2.528775
  C      -4.451266     -0.108377     -1.697123
  H      -4.331960     -0.654512     -0.758727
  H      -3.451387      0.229015     -1.985719
  C      -5.023253     -1.048218     -2.760592
  H      -5.854864     -1.615148     -2.326609
  H      -5.447072     -0.477591     -3.592098
  C      -3.984786     -2.018234     -3.320482
  H      -3.198776     -1.438249     -3.815270
  H      -3.499143     -2.548060     -2.495144
  C      -4.563532     -3.030230     -4.303448
  H      -5.031457     -2.531828     -5.156092
  H      -3.787744     -3.692606     -4.692484
  H      -5.324100     -3.654333     -3.828047
24
Coordinates from ORCA-job 17 Relaxed Surface Scan Step 10
  C      -5.676893      2.433379      0.558938
  H      -5.163110      2.668995      1.489227
  H      -5.948094      3.375465      0.073252
  H      -6.600425      1.895501      0.801464
  O      -4.822944      1.660242     -0.210478
  C      -5.326689      1.130299     -1.406739
  H      -6.351530      0.775927     -1.235296
  C      -5.355985      2.190799     -2.503052
  H      -5.762779      1.791020     -3.431992
  H      -5.977419      3.040116     -2.217113
  H      -4.346742      2.560019     -2.695288
  C      -4.449021     -0.071859     -1.745133
  H      -4.348017     -0.660686     -0.830136
  H      -3.446225      0.292521     -1.987137
  C      -4.970087     -0.969276     -2.865822
  H      -5.930113     -1.404220     -2.564250
  H      -5.170219     -0.382832     -3.766794
  C      -3.999366     -2.093240     -3.223943
  H      -3.054314     -1.651932     -3.556205
  H      -3.764699     -2.670309     -2.324283
  C      -4.527503     -3.031176     -4.304359
  H      -4.737730     -2.490729     -5.230600
  H      -3.804210     -3.815418     -4.536003
  H      -5.453596     -3.517691     -3.988636
24
Coordinates from ORCA-job 17 Relaxed Surface Scan Step 11
  C      -5.608799      2.418714      0.582315
  H      -5.025069      2.750311      1.439167
  H      -6.045523      3.302085      0.106682
  H      -6.427114      1.786854      0.945732
  O      -4.761040      1.720486     -0.261731
  C      -5.325114      1.131892     -1.402649
  H      -6.313292      0.728640     -1.142393
  C      -5.493775      2.158349     -2.517661
  H      -5.985104      1.721829     -3.387615
  H      -6.102692      3.001248     -2.188993
  H      -4.520123      2.545088     -2.825094
  C      -4.414989     -0.034917     -1.774423
  H      -4.312545     -0.653375     -0.879736
  H      -3.417784      0.362503     -1.984608
  C      -4.895631     -0.896378     -2.940123
  H      -5.938661     -1.189569     -2.774513
  H      -4.887402     -0.316146     -3.867088
  C      -4.051386     -2.154351     -3.138872
  H      -3.004750     -1.867941     -3.280808
  H      -4.077587     -2.753332     -2.223519
  C      -4.505914     -3.010188     -4.316613
  H      -4.449682     -2.454555     -5.255848
  H      -3.884030     -3.901277     -4.421761
  H      -5.539703     -3.341056     -4.190227
24
Coordinates from ORCA-job 17 Relaxed Surface Scan Step 12
  C      -5.586637      2.383402      0.597521
  H      -4.988624      2.759595      1.425609
  H      -6.112168      3.230277      0.145851
  H      -6.335665      1.691478      0.998955
  O      -4.730758      1.750826     -0.289071
  C      -5.303984      1.129585     -1.407329
  H      -6.250693      0.658042     -1.105166
  C      -5.586583      2.144368     -2.509794
  H      -6.068635      1.673903     -3.367354
  H      -6.247238      2.937719     -2.158210
  H      -4.654568      2.604484     -2.844018
  C      -4.340815      0.024253     -1.827669
  H      -4.179724     -0.602357     -0.949224
  H      -3.371542      0.477368     -2.053820
  C      -4.812892     -0.832522     -3.004069
  H      -5.893512     -0.995584     -2.933657
  H      -4.654764     -0.295260     -3.943686
  C      -4.115946     -2.191044     -3.078487
  H      -3.031202     -2.049127     -3.075405
  H      -4.344202     -2.757014     -2.170165
  C      -4.516088     -3.012085     -4.299744
  H      -4.258953     -2.494714     -5.227214
  H      -4.010154     -3.979492     -4.309338
  H      -5.592361     -3.201188     -4.314894
24
Coordinates from ORCA-job 17 Relaxed Surface Scan Step 13
  C      -5.591409      2.315805      0.613461
  H      -4.999730      2.712196      1.436652
  H      -6.180370      3.136320      0.192448
  H      -6.285081      1.568604      1.015299
  O      -4.717552      1.758651     -0.305686
  C      -5.275831      1.129529     -1.426730
  H      -6.182449      0.588034     -1.116105
  C      -5.646467      2.151189     -2.496541
  H      -6.094241      1.669989     -3.366671
  H      -6.365154      2.879770     -2.119365
  H      -4.754937      2.692207     -2.819662
  C      -4.256445      0.098977     -1.900328
  H      -4.017958     -0.523030     -1.037530
  H      -3.329101      0.619416     -2.153805
  C      -4.723313     -0.772267     -3.074026
  H      -5.816529     -0.820902     -3.089895
  H      -4.439755     -0.304833     -4.021442
  C      -4.176713     -2.199800     -3.028528
  H      -3.088432     -2.178401     -2.921095
  H      -4.552456     -2.691450     -2.125794
  C      -4.550293     -3.031885     -4.250468
  H      -4.147171     -2.593974     -5.166819
  H      -4.161496     -4.048980     -4.170761
  H      -5.634826     -3.100249     -4.366986
24
Coordinates from ORCA-job 17 Relaxed Surface Scan Step 14
  C      -5.613687      2.217157      0.625829
  H      -5.039853      2.606883      1.464667
  H      -6.241358      3.025545      0.238820
  H      -6.270580      1.422118      0.996503
  O      -4.716059      1.739979     -0.315214
  C      -5.245431      1.127785     -1.459254
  H      -6.114704      0.519270     -1.167790
  C      -5.685361      2.171942     -2.480463
  H      -6.085471      1.704049     -3.380511
  H      -6.461960      2.823191     -2.077466
  H      -4.834492      2.794850     -2.762848
  C      -4.169731      0.184348     -1.987956
  H      -3.844966     -0.422406     -1.142451
  H      -3.299027      0.780012     -2.272914
  C      -4.621789     -0.715163     -3.152058
  H      -5.708921     -0.664697     -3.264704
  H      -4.216608     -0.339523     -4.095764
  C      -4.225464     -2.182338     -2.981371
  H      -3.147889     -2.256426     -2.808617
  H      -4.697853     -2.571830     -2.073997
  C      -4.611184     -3.057244     -4.168979
  H      -4.117982     -2.722415     -5.084755
  H      -4.328120     -4.098430     -4.002261
  H      -5.689216     -3.031743     -4.346824
24
Coordinates from ORCA-job 17 Relaxed Surface Scan Step 15
  C      -5.634768      2.104106      0.630396
  H      -5.079129      2.474637      1.489923
  H      -6.291613      2.905648      0.279382
  H      -6.261884      1.267633      0.959137
  O      -4.716139      1.707238     -0.327568
  C      -5.216139      1.120720     -1.498019
  H      -6.049036      0.453473     -1.234323
  C      -5.719996      2.186597     -2.466446
  H      -6.081402      1.742915     -3.394596
  H      -6.541857      2.761312     -2.037609
  H      -4.911182      2.879395     -2.706080
  C      -4.089382      0.269547     -2.077119
  H      -3.681691     -0.313331     -1.250254
  H      -3.285426      0.938795     -2.392080
  C      -4.512791     -0.664431     -3.228087
  H      -5.574084     -0.528251     -3.455718
  H      -3.983159     -0.394848     -4.145637
  C      -4.271290     -2.145124     -2.932140
  H      -3.212814     -2.300092     -2.702569
  H      -4.817771     -2.421525     -2.024706
  C      -4.683571     -3.067834     -4.073700
  H      -4.125350     -2.843318     -4.985878
  H      -4.500368     -4.114485     -3.822789
  H      -5.746866     -2.963860     -4.303896
24
Coordinates from ORCA-job 17 Relaxed Surface Scan Step 16
  C      -5.644916      1.996404      0.627019
  H      -5.103340      2.350999      1.502106
  H      -6.330499      2.787324      0.308514
  H      -6.241079      1.124650      0.919804
  O      -4.712014      1.673310     -0.344784
  C      -5.187664      1.105716     -1.534793
  H      -5.981360      0.386376     -1.293001
  C      -5.759628      2.179092     -2.456436
  H      -6.094305      1.754687     -3.403335
  H      -6.615651      2.681291     -2.004047
  H      -4.996662      2.931343     -2.664941
  C      -4.016687      0.347153     -2.156225
  H      -3.533272     -0.202385     -1.346724
  H      -3.285081      1.081536     -2.500700
  C      -4.399361     -0.623055     -3.290261
  H      -5.411600     -0.413558     -3.647874
  H      -3.746564     -0.464703     -4.152533
  C      -4.321697     -2.094835     -2.883084
  H      -3.293400     -2.325181     -2.587520
  H      -4.936764     -2.258242     -1.992266
  C      -4.758883     -3.054106     -3.984658
  H      -4.141155     -2.938230     -4.878613
  H      -4.678960     -4.093351     -3.659724
  H      -5.797167     -2.877321     -4.276298
24
Coordinates from ORCA-job 17 Relaxed Surface Scan Step 17
  C      -5.630445      1.923906      0.623028
  H      -5.092971      2.285143      1.497941
  H      -6.353493      2.690340      0.328501
  H      -6.184695      1.021926      0.906549
  O      -4.697433      1.659530     -0.366227
  C      -5.161517      1.083061     -1.556902
  H      -5.908537      0.317573     -1.311758
  C      -5.813952      2.134792     -2.449778
  H      -6.140946      1.706130     -3.397354
  H      -6.690212      2.576513     -1.973707
  H      -5.102186      2.935396     -2.659232
  C      -3.956768      0.408042     -2.211690
  H      -3.408688     -0.101372     -1.416810
  H      -3.294981      1.193386     -2.584315
  C      -4.291298     -0.594431     -3.328179
  H      -5.227290     -0.320438     -3.823176
  H      -3.523224     -0.543762     -4.104386
  C      -4.391048     -2.041002     -2.842513
  H      -3.416070     -2.343375     -2.447453
  H      -5.091871     -2.102208     -2.003940
  C      -4.819271     -3.018423     -3.931919
  H      -4.122399     -3.002813     -4.773536
  H      -4.857957     -4.041736     -3.553340
  H      -5.810456     -2.771264     -4.320181
24
Coordinates from ORCA-job 17 Relaxed Surface Scan Step 18
  C      -5.572333      1.936383      0.628911
  H      -5.022470      2.359031      1.467898
  H      -6.355069      2.645830      0.344387
  H      -6.054866      1.011036      0.963630
  O      -4.667084      1.699360     -0.392443
  C      -5.141108      1.050595     -1.541923
  H      -5.824953      0.249556     -1.236559
  C      -5.899768      2.023592     -2.439601
  H      -6.258375      1.534015     -3.345179
  H      -6.770115      2.439243     -1.930511
  H      -5.248421      2.851027     -2.727066
  C      -3.915808      0.435997     -2.218892
  H      -3.326019     -0.042058     -1.433930
  H      -3.304806      1.256435     -2.603391
  C      -4.194993     -0.579531     -3.333819
  H      -5.013479     -0.235324     -3.972185
  H      -3.317924     -0.630722     -3.984886
  C      -4.502221     -1.992293     -2.834861
  H      -3.632250     -2.365016     -2.285079
  H      -5.327635     -1.967065     -2.117363
  C      -4.843327     -2.966798     -3.957647
  H      -4.025751     -3.041049     -4.678862
  H      -5.033447     -3.968995     -3.568542
  H      -5.735488     -2.648335     -4.502465
24
Coordinates from ORCA-job 17 Relaxed Surface Scan Step 19
  C      -5.471824      2.035260      0.637956
  H      -4.925835      2.633045      1.365610
  H      -6.383759      2.577190      0.369241
  H      -5.763075      1.092505      1.114786
  O      -4.636738      1.822583     -0.446295
  C      -5.117541      1.007557     -1.482230
  H      -5.705088      0.193880     -1.041841
  C      -6.014445      1.803629     -2.424049
  H      -6.447022      1.167497     -3.196777
  H      -6.841547      2.264007     -1.882468
  H      -5.443735      2.598702     -2.907791
  C      -3.877620      0.426754     -2.161487
  H      -3.281025     -0.051163     -1.380400
  H      -3.284138      1.270483     -2.522635
  C      -4.102587     -0.564412     -3.306082
  H      -4.746239     -0.122538     -4.072074
  H      -3.138755     -0.731124     -3.795787
  C      -4.668969     -1.921480     -2.887673
  H      -4.000394     -2.371064     -2.146437
  H      -5.632990     -1.791203     -2.387536
  C      -4.842592     -2.884223     -4.058175
  H      -3.890695     -3.071492     -4.560922
  H      -5.236132     -3.846532     -3.724996
  H      -5.534964     -2.482945     -4.802316
24
Coordinates from ORCA-job 17 Relaxed Surface Scan Step 20
  C      -5.421144      2.008549      0.647786
  H      -4.895977      2.662659      1.341515
  H      -6.384715      2.469460      0.409637
  H      -5.614361      1.054827      1.151804
  O      -4.617762      1.842777     -0.468190
  C      -5.083533      0.984551     -1.475530
  H      -5.602994      0.140721     -1.005108
  C      -6.058644      1.710973     -2.395927
  H      -6.466870      1.041126     -3.153454
  H      -6.899769      2.119762     -1.834825
  H      -5.555380      2.538427     -2.899764
  C      -3.839570      0.464952     -2.193204
  H      -3.192668      0.021236     -1.432641
  H      -3.297537      1.331435     -2.580783
  C      -4.063014     -0.541086     -3.324817
  H      -4.587431     -0.064071     -4.158235
  H      -3.080122     -0.816212     -3.718478
  C      -4.804950     -1.818266     -2.925941
  H      -4.336687     -2.246138     -2.033789
  H      -5.833096     -1.580186     -2.639850
  C      -4.832647     -2.864520     -4.035983
  H      -3.822237     -3.171279     -4.316387
  H      -5.376334     -3.758639     -3.724674
  H      -5.320266     -2.476142     -4.933539
24
Coordinates from ORCA-job 17 Relaxed Surface Scan Step 21
  C      -5.385437      1.915784      0.663753
  H      -4.872724      2.569672      1.366944
  H      -6.370806      2.344775      0.457484
  H      -5.531168      0.940732      1.142364
  O      -4.598363      1.814742     -0.471461
  C      -5.054335      0.973733     -1.497374
  H      -5.522933      0.088235     -1.046921
  C      -6.078479      1.693788     -2.368743
  H      -6.447784      1.049593     -3.167170
  H      -6.940628      2.016772     -1.783878
  H      -5.626430      2.578903     -2.820113
  C      -3.814347      0.525562     -2.266435
  H      -3.105432      0.138436     -1.531282
  H      -3.339723      1.412611     -2.694078
  C      -4.038624     -0.518118     -3.367068
  H      -4.456788     -0.045284     -4.261042
  H      -3.056008     -0.889915     -3.671040
  C      -4.920836     -1.706979     -2.971350
  H      -4.663575     -2.042134     -1.961633
  H      -5.964800     -1.388158     -2.913200
  C      -4.819578     -2.877374     -3.944345
  H      -3.802974     -3.275776     -3.980220
  H      -5.485913     -3.692507     -3.655318
  H      -5.090024     -2.572178     -4.958251
24
Coordinates from ORCA-job 17 Relaxed Surface Scan Step 22
  C      -5.341877      1.863281      0.675738
  H      -4.816810      2.496685      1.388533
  H      -6.328508      2.300670      0.495495
  H      -5.483851      0.876247      1.130588
  O      -4.571143      1.790228     -0.472799
  C      -5.028540      0.955562     -1.503355
  H      -5.424580      0.031475     -1.058184
  C      -6.120609      1.650334     -2.311385
  H      -6.439811      1.044789     -3.159409
  H      -7.003336      1.855245     -1.704027
  H      -5.743283      2.601453     -2.691330
  C      -3.801128      0.592433     -2.336677
  H      -3.018001      0.321541     -1.627070
  H      -3.437518      1.497958     -2.828882
  C      -3.978251     -0.528950     -3.380154
  H      -4.219709     -0.104595     -4.359096
  H      -3.003829     -1.006093     -3.514371
  C      -5.016029     -1.611427     -3.052004
  H      -4.991971     -1.858038     -1.987212
  H      -6.020867     -1.219005     -3.226058
  C      -4.835138     -2.877908     -3.882165
  H      -3.870707     -3.349745     -3.680226
  H      -5.615515     -3.609816     -3.664597
  H      -4.876696     -2.657409     -4.951731
24
Coordinates from ORCA-job 17 Relaxed Surface Scan Step 23
  C      -5.250913      1.928578      0.693401
  H      -4.700897      2.595465      1.355020
  H      -6.259078      2.333751      0.565050
  H      -5.335278      0.951040      1.181925
  O      -4.551059      1.844981     -0.498898
  C      -5.031030      0.949769     -1.468754
  H      -5.343727      0.028111     -0.963653
  C      -6.220038      1.562662     -2.204027
  H      -6.566456      0.926798     -3.016741
  H      -7.065394      1.728789     -1.534779
  H      -5.926574      2.526585     -2.623594
  C      -3.839601      0.643902     -2.382074
  H      -2.975723      0.600150     -1.720586
  H      -3.674198      1.520578     -3.012340
  C      -3.867147     -0.636103     -3.261911
  H      -3.730319     -0.354207     -4.308975
  H      -2.983579     -1.229324     -3.013221
  C      -5.079621     -1.571117     -3.185004
  H      -5.294015     -1.837081     -2.147438
  H      -5.972871     -1.066240     -3.556945
  C      -4.870803     -2.849476     -3.991905
  H      -4.016309     -3.419074     -3.618961
  H      -5.748583     -3.496659     -3.940594
  H      -4.684496     -2.626964     -5.045373
24
Coordinates from ORCA-job 17 Relaxed Surface Scan Step 24
  C      -5.153864      2.000388      0.707610
  H      -4.565750      2.679716      1.322125
  H      -6.165416      2.408600      0.624168
  H      -5.216328      1.035394      1.223670
  O      -4.519150      1.883677     -0.517898
  C      -5.038034      0.951304     -1.430737
  H      -5.304379      0.041717     -0.884281
  C      -6.297141      1.503471     -2.094535
  H      -6.691054      0.814176     -2.839332
  H      -7.088309      1.684045     -1.365620
  H      -6.067735      2.450251     -2.586848
  C      -3.910459      0.655002     -2.428786
  H      -2.978131      0.788729     -1.879246
  H      -3.929834      1.438845     -3.190057
  C      -3.836459     -0.730990     -3.109947
  H      -3.364009     -0.578817     -4.084372
  H      -3.146631     -1.359891     -2.539752
  C      -5.112999     -1.547456     -3.322860
  H      -5.533469     -1.829576     -2.353066
  H      -5.871015     -0.956427     -3.841425
  C      -4.850726     -2.821557     -4.121982
  H      -4.110700     -3.454611     -3.626420
  H      -5.763499     -3.408908     -4.239739
  H      -4.472618     -2.592166     -5.121048
