24
Coordinates from ORCA-job 18 Relaxed Surface Scan Step 1
  O      -5.076073      0.007601     -0.191661
  C      -5.856035      1.143706     -0.051508
  H      -6.896530      0.851131     -0.181411
  H      -5.743668      1.589173      0.943411
  H      -5.621761      1.910707     -0.796108
  C      -3.699222      0.147397      0.046405
  H      -3.593733      0.789113      0.924190
  C      -2.983528      0.855816     -1.117790
  H      -3.143000      1.934935     -1.030848
  H      -1.907932      0.730835     -0.990610
  C      -3.176442     -1.258236      0.425844
  H      -3.138695     -1.315408      1.518772
  H      -3.933993     -1.973358      0.102768
  C      -1.815233     -1.708366     -0.104844
  H      -1.833933     -1.737086     -1.196438
  H      -1.037591     -0.992697      0.176401
  C      -1.426808     -3.088818      0.417602
  H      -2.163697     -3.842315      0.129835
  H      -0.458917     -3.402238      0.021062
  H      -1.356800     -3.095947      1.508139
  C      -3.402378      0.391136     -2.510283
  H      -2.814242      0.900468     -3.276521
  H      -3.261502     -0.682184     -2.642795
  H      -4.454355      0.602182     -2.699368
24
Coordinates from ORCA-job 18 Relaxed Surface Scan Step 2
  O      -5.087674      0.039837     -0.163620
  C      -5.827392      1.197481      0.013944
  H      -6.880451      0.936492     -0.075659
  H      -5.662423      1.633230      1.005814
  H      -5.600258      1.961580     -0.735818
  C      -3.699831      0.134130      0.024579
  H      -3.540892      0.755688      0.910140
  C      -3.000976      0.831058     -1.155152
  H      -3.154536      1.911351     -1.079958
  H      -1.923994      0.705524     -1.039423
  C      -3.214313     -1.293974      0.344489
  H      -3.311618     -1.443782      1.424342
  H      -3.912282     -1.985624     -0.130453
  C      -1.788598     -1.675099     -0.052805
  H      -1.691254     -1.646069     -1.140692
  H      -1.073366     -0.949184      0.345510
  C      -1.407265     -3.068571      0.439187
  H      -2.083864     -3.827511      0.039340
  H      -0.393580     -3.331901      0.130974
  H      -1.449617     -3.130766      1.529171
  C      -3.438593      0.344342     -2.533763
  H      -2.873468      0.851860     -3.318231
  H      -3.282214     -0.728858     -2.654200
  H      -4.497607      0.536313     -2.703472
24
Coordinates from ORCA-job 18 Relaxed Surface Scan Step 3
  O      -5.091614      0.069767     -0.135743
  C      -5.794462      1.242741      0.085964
  H      -6.856428      1.007749      0.040515
  H      -5.575709      1.663688      1.073800
  H      -5.582422      2.009107     -0.665812
  C      -3.696122      0.123165     -0.000251
  H      -3.479439      0.719847      0.892544
  C      -3.022755      0.816102     -1.195237
  H      -3.197351      1.893408     -1.136412
  H      -1.942270      0.712437     -1.087173
  C      -3.242754     -1.321730      0.258024
  H      -3.466943     -1.556259      1.302504
  H      -3.871092     -1.978214     -0.347573
  C      -1.773043     -1.649042     -0.001030
  H      -1.562657     -1.563182     -1.070011
  H      -1.128095     -0.922316      0.503161
  C      -1.400412     -3.053977      0.463846
  H      -2.010478     -3.809897     -0.036291
  H      -0.353556     -3.276454      0.248251
  H      -1.549815     -3.169184      1.539935
  C      -3.464587      0.299185     -2.561219
  H      -2.938259      0.824497     -3.360739
  H      -3.261256     -0.766875     -2.677233
  H      -4.534552      0.442983     -2.709578
24
Coordinates from ORCA-job 18 Relaxed Surface Scan Step 4
  O      -5.086962      0.098862     -0.110975
  C      -5.755918      1.279640      0.167455
  H      -6.823035      1.064445      0.169220
  H      -5.481974      1.676310      1.151534
  H      -5.566790      2.057286     -0.578665
  C      -3.686689      0.116749     -0.032911
  H      -3.407283      0.688913      0.860927
  C      -3.050401      0.810508     -1.245753
  H      -3.273869      1.879098     -1.205947
  H      -1.965075      0.752300     -1.145278
  C      -3.259751     -1.338932      0.172961
  H      -3.604422     -1.641042      1.165210
  H      -3.808434     -1.958275     -0.540354
  C      -1.763910     -1.627312      0.060781
  H      -1.436729     -1.475883     -0.970945
  H      -1.198730     -0.915748      0.671787
  C      -1.407671     -3.048213      0.488107
  H      -1.939869     -3.786890     -0.115960
  H      -0.338190     -3.237660      0.377680
  H      -1.670696     -3.226144      1.533382
  C      -3.484030      0.253526     -2.598552
  H      -3.016861      0.811986     -3.412183
  H      -3.203579     -0.794642     -2.716847
  H      -4.565200      0.318663     -2.720431
24
Coordinates from ORCA-job 18 Relaxed Surface Scan Step 5
  O      -5.071438      0.126675     -0.091150
  C      -5.707750      1.308088      0.253643
  H      -6.776537      1.107247      0.302750
  H      -5.379427      1.671935      1.233706
  H      -5.545190      2.104857     -0.478269
  C      -3.668976      0.116164     -0.076831
  H      -3.324264      0.671169      0.806154
  C      -3.085055      0.811897     -1.313130
  H      -3.373478      1.865463     -1.287071
  H      -1.995879      0.812814     -1.230714
  C      -3.261167     -1.345382      0.096777
  H      -3.722760     -1.692956      1.024109
  H      -3.716380     -1.935279     -0.702319
  C      -1.757540     -1.608595      0.149501
  H      -1.301748     -1.369824     -0.814675
  H      -1.292055     -0.939721      0.881033
  C      -1.424685     -3.053855      0.508486
  H      -1.855077     -3.749572     -0.215724
  H      -0.345581     -3.218498      0.525752
  H      -1.817339     -3.318238      1.493017
  C      -3.511508      0.211675     -2.649713
  H      -3.122243      0.806159     -3.478648
  H      -3.141971     -0.807279     -2.777483
  H      -4.598022      0.182606     -2.734959
24
Coordinates from ORCA-job 18 Relaxed Surface Scan Step 6
  O      -5.041529      0.148408     -0.076829
  C      -5.641448      1.330982      0.324654
  H      -6.709957      1.145264      0.418751
  H      -5.262200      1.665626      1.296667
  H      -5.500539      2.143142     -0.394693
  C      -3.639818      0.114052     -0.131983
  H      -3.232535      0.664007      0.726623
  C      -3.120288      0.806766     -1.397707
  H      -3.442324      1.851062     -1.361952
  H      -2.028420      0.835239     -1.362766
  C      -3.241359     -1.350905      0.030614
  H      -3.824911     -1.733896      0.870761
  H      -3.570124     -1.919225     -0.842555
  C      -1.755724     -1.594184      0.291231
  H      -1.153773     -1.228313     -0.544498
  H      -1.442475     -1.012671      1.164348
  C      -1.430887     -3.066233      0.527568
  H      -1.699528     -3.674577     -0.339271
  H      -0.365429     -3.210728      0.716690
  H      -1.977739     -3.458715      1.387973
  C      -3.588721      0.191046     -2.713255
  H      -3.276340      0.809317     -3.557153
  H      -3.174391     -0.806148     -2.870464
  H      -4.675609      0.108230     -2.738513
24
Coordinates from ORCA-job 18 Relaxed Surface Scan Step 7
  O      -4.985768      0.131867     -0.017680
  C      -5.553920      1.355284      0.298773
  H      -6.597955      1.179804      0.552522
  H      -5.061608      1.817430      1.161866
  H      -5.522048      2.065050     -0.533091
  C      -3.592388      0.080013     -0.169379
  H      -3.121652      0.622161      0.660720
  C      -3.142926      0.773931     -1.461867
  H      -3.361738      1.841515     -1.365307
  H      -2.054645      0.699591     -1.536068
  C      -3.185137     -1.389838     -0.044099
  H      -3.909923     -1.855319      0.625951
  H      -3.293198     -1.898173     -1.004757
  C      -1.775836     -1.606489      0.508311
  H      -1.038832     -1.056604     -0.083763
  H      -1.721533     -1.183298      1.516128
  C      -1.376235     -3.077691      0.560642
  H      -1.370801     -3.522749     -0.437170
  H      -0.377855     -3.201844      0.984552
  H      -2.072376     -3.653732      1.174776
  C      -3.794506      0.255709     -2.741278
  H      -3.480696      0.855737     -3.597795
  H      -3.522945     -0.779319     -2.952892
  H      -4.881547      0.304509     -2.674852
24
Coordinates from ORCA-job 18 Relaxed Surface Scan Step 8
  O      -4.910917      0.117870      0.011874
  C      -5.455334      1.341733      0.365758
  H      -6.478692      1.166944      0.693421
  H      -4.902746      1.805541      1.190712
  H      -5.481977      2.049812     -0.467804
  C      -3.532856      0.074330     -0.247080
  H      -3.010985      0.616773      0.551165
  C      -3.177665      0.775980     -1.564449
  H      -3.341791      1.850587     -1.443600
  H      -2.103368      0.655303     -1.732483
  C      -3.094003     -1.396306     -0.179491
  H      -3.920810     -1.958268      0.256064
  H      -2.943337     -1.800221     -1.182994
  C      -1.832038     -1.623744      0.653380
  H      -1.018533     -0.988765      0.288407
  H      -2.023218     -1.300672      1.681317
  C      -1.371274     -3.077317      0.659156
  H      -1.123966     -3.418987     -0.348851
  H      -0.483567     -3.209171      1.280868
  H      -2.150863     -3.736191      1.048709
  C      -3.958599      0.293571     -2.784034
  H      -3.675607      0.866146     -3.669521
  H      -3.772084     -0.758886     -3.001890
  H      -5.031837      0.411483     -2.634388
24
Coordinates from ORCA-job 18 Relaxed Surface Scan Step 9
  O      -4.800954      0.088606      0.043455
  C      -5.354603      1.286454      0.465092
  H      -6.349420      1.074029      0.852853
  H      -4.762480      1.745241      1.265084
  H      -5.453779      2.014167     -0.345885
  C      -3.448706      0.103129     -0.331503
  H      -2.896232      0.663796      0.433407
  C      -3.222886      0.814368     -1.672284
  H      -3.389791      1.887578     -1.550435
  H      -2.163734      0.711488     -1.925866
  C      -2.949283     -1.352244     -0.325936
  H      -3.814397     -1.996468     -0.165228
  H      -2.539345     -1.619570     -1.302723
  C      -1.892567     -1.632977      0.741140
  H      -1.023882     -0.989306      0.564557
  H      -2.288473     -1.351492      1.721603
  C      -1.441714     -3.089025      0.774335
  H      -1.010132     -3.392519     -0.182705
  H      -0.685769     -3.252402      1.544949
  H      -2.280551     -3.756650      0.984538
  C      -4.089116      0.298564     -2.817787
  H      -3.875650      0.845784     -3.738098
  H      -3.913625     -0.760122     -3.015882
  H      -5.148976      0.417118     -2.592438
24
Coordinates from ORCA-job 18 Relaxed Surface Scan Step 10
  O      -4.677534      0.064728      0.080344
  C      -5.251640      1.231132      0.559169
  H      -6.209313      0.970840      1.006630
  H      -4.627973      1.702397      1.327217
  H      -5.433233      1.965978     -0.230893
  C      -3.361536      0.147825     -0.400380
  H      -2.786799      0.740972      0.322802
  C      -3.270472      0.850496     -1.761626
  H      -3.483660      1.915815     -1.648095
  H      -2.226941      0.801860     -2.085098
  C      -2.800768     -1.280650     -0.430057
  H      -3.647245     -1.964816     -0.510569
  H      -2.189608     -1.427630     -1.324105
  C      -1.961437     -1.632417      0.795807
  H      -1.063626     -1.003645      0.793047
  H      -2.520472     -1.379253      1.701175
  C      -1.547537     -3.098949      0.844806
  H      -0.968909     -3.377586     -0.039573
  H      -0.932061     -3.308061      1.722026
  H      -2.420896     -3.753840      0.887676
  C      -4.178070      0.261072     -2.837168
  H      -4.066214      0.804912     -3.777217
  H      -3.944892     -0.787086     -3.032909
  H      -5.225231      0.313451     -2.538766
24
Coordinates from ORCA-job 18 Relaxed Surface Scan Step 11
  O      -4.568826      0.063776      0.113911
  C      -5.149280      1.209700      0.633267
  H      -6.071506      0.918133      1.132835
  H      -4.496987      1.695398      1.367648
  H      -5.397802      1.942639     -0.140140
  C      -3.290256      0.188480     -0.450613
  H      -2.690860      0.816886      0.220903
  C      -3.314487      0.864532     -1.827883
  H      -3.588262      1.916384     -1.718624
  H      -2.288862      0.875010     -2.207011
  C      -2.684120     -1.215192     -0.486436
  H      -3.481033     -1.912835     -0.752722
  H      -1.931082     -1.273190     -1.277054
  C      -2.047673     -1.635887      0.835738
  H      -1.166375     -1.008683      1.011889
  H      -2.747817     -1.435663      1.650666
  C      -1.632493     -3.102831      0.866805
  H      -0.920342     -3.331144      0.069658
  H      -1.159351     -3.360603      1.816430
  H      -2.495518     -3.759926      0.736712
  C      -4.239411      0.202142     -2.844708
  H      -4.228852      0.749937     -3.789052
  H      -3.938187     -0.825047     -3.057354
  H      -5.266685      0.175530     -2.480622
24
Coordinates from ORCA-job 18 Relaxed Surface Scan Step 12
  O      -4.491563      0.093165      0.141261
  C      -5.049437      1.237646      0.688116
  H      -5.948251      0.944018      1.227543
  H      -4.365518      1.722264      1.393689
  H      -5.333168      1.971842     -0.071783
  C      -3.242641      0.217072     -0.485233
  H      -2.611537      0.871038      0.130976
  C      -3.351517      0.858018     -1.874785
  H      -3.676926      1.895391     -1.765230
  H      -2.344461      0.913235     -2.297526
  C      -2.616185     -1.174062     -0.508882
  H      -3.350558     -1.871627     -0.918123
  H      -1.762337     -1.171403     -1.192833
  C      -2.162577     -1.660728      0.865299
  H      -1.364264     -1.004922      1.229336
  H      -2.992684     -1.563871      1.567690
  C      -1.662651     -3.101672      0.857863
  H      -0.818557     -3.227231      0.174858
  H      -1.332323     -3.410781      1.851560
  H      -2.448952     -3.790940      0.541050
  C      -4.286416      0.139207     -2.843373
  H      -4.362112      0.689857     -3.783087
  H      -3.933015     -0.865486     -3.080674
  H      -5.288420      0.047515     -2.423468
24
Coordinates from ORCA-job 18 Relaxed Surface Scan Step 13
  O      -4.436926      0.135022      0.160422
  C      -4.947319      1.290339      0.730503
  H      -5.834216      1.016206      1.299109
  H      -4.227831      1.754079      1.414198
  H      -5.238775      2.035255     -0.015889
  C      -3.211355      0.229706     -0.514478
  H      -2.544053      0.893921      0.051748
  C      -3.380065      0.840613     -1.911184
  H      -3.730193      1.869782     -1.797215
  H      -2.391237      0.914314     -2.372658
  C      -2.585065     -1.160465     -0.522692
  H      -3.248118     -1.848638     -1.051964
  H      -1.653638     -1.115947     -1.095792
  C      -2.304386     -1.711405      0.873898
  H      -1.664741     -1.010301      1.420219
  H      -3.243071     -1.762414      1.426815
  C      -1.644313     -3.086427      0.853397
  H      -0.683103     -3.061208      0.333686
  H      -1.462977     -3.452474      1.865932
  H      -2.274823     -3.820093      0.345156
  C      -4.336744      0.093007     -2.836130
  H      -4.477454      0.645321     -3.767348
  H      -3.962815     -0.897710     -3.098560
  H      -5.312852     -0.032938     -2.366931
24
Coordinates from ORCA-job 18 Relaxed Surface Scan Step 14
  O      -4.384563      0.169493      0.172959
  C      -4.837548      1.333861      0.772217
  H      -5.715522      1.082365      1.364622
  H      -4.081982      1.763650      1.438842
  H      -5.126111      2.098276      0.044641
  C      -3.183119      0.232490     -0.547227
  H      -2.480399      0.896832     -0.023845
  C      -3.407060      0.825699     -1.943062
  H      -3.772436      1.848324     -1.816163
  H      -2.438052      0.911753     -2.443137
  C      -2.562815     -1.161458     -0.547609
  H      -3.144577     -1.832873     -1.182779
  H      -1.570722     -1.086042     -1.004281
  C      -2.450791     -1.773705      0.848625
  H      -2.023243     -1.040856      1.540527
  H      -3.454394     -1.978784      1.221410
  C      -1.619819     -3.052379      0.876925
  H      -0.590258     -2.868704      0.559313
  H      -1.584970     -3.478475      1.881601
  H      -2.039205     -3.811286      0.211543
  C      -4.390709      0.063092     -2.826906
  H      -4.585520      0.618057     -3.746733
  H      -4.011234     -0.918374     -3.114368
  H      -5.341018     -0.083411     -2.312870
24
Coordinates from ORCA-job 18 Relaxed Surface Scan Step 15
  O      -4.327529      0.201519      0.180084
  C      -4.714636      1.363433      0.827795
  H      -5.590898      1.131224      1.430534
  H      -3.926725      1.735476      1.491708
  H      -4.982723      2.165209      0.133247
  C      -3.152732      0.243065     -0.585610
  H      -2.423180      0.913632     -0.106797
  C      -3.446127      0.818274     -1.975038
  H      -3.853168      1.822403     -1.826725
  H      -2.502618      0.943750     -2.514275
  C      -2.525834     -1.152185     -0.580493
  H      -3.006142     -1.801968     -1.314300
  H      -1.486336     -1.047287     -0.907197
  C      -2.583112     -1.829153      0.791203
  H      -2.381703     -1.095865      1.577743
  H      -3.605461     -2.161817      0.971974
  C      -1.628045     -3.011134      0.917845
  H      -0.586450     -2.698266      0.808883
  H      -1.727651     -3.497160      1.890512
  H      -1.826822     -3.764657      0.151309
  C      -4.436203      0.019273     -2.818909
  H      -4.697446      0.572492     -3.723185
  H      -4.030396     -0.942786     -3.134284
  H      -5.354132     -0.169924     -2.261780
24
Coordinates from ORCA-job 18 Relaxed Surface Scan Step 16
  O      -4.168648      0.288935      0.297020
  C      -4.671504      1.482185      0.789075
  H      -5.441611      1.240861      1.519712
  H      -3.893751      2.071384      1.287446
  H      -5.124370      2.103265      0.010666
  C      -3.053855      0.355739     -0.550368
  H      -2.370009      1.129027     -0.172904
  C      -3.475087      0.773900     -1.963873
  H      -3.876208      1.789389     -1.911757
  H      -2.580233      0.828159     -2.590914
  C      -2.293623     -0.988237     -0.501182
  H      -2.429005     -1.542557     -1.432060
  H      -1.224031     -0.763935     -0.455612
  C      -2.668550     -1.901985      0.666633
  H      -2.677013     -1.333215      1.597985
  H      -3.695897     -2.244003      0.533622
  C      -1.738271     -3.103991      0.792083
  H      -0.707972     -2.794676      0.986206
  H      -2.047098     -3.756372      1.611429
  H      -1.734581     -3.703075     -0.122341
  C      -4.525725     -0.123205     -2.613397
  H      -4.808637      0.268731     -3.592391
  H      -4.166209     -1.142296     -2.762326
  H      -5.424180     -0.176481     -1.998508
24
Coordinates from ORCA-job 18 Relaxed Surface Scan Step 17
  O      -4.033326      0.451484      0.446011
  C      -4.634326      1.660077      0.757708
  H      -5.324903      1.484412      1.580690
  H      -3.897643      2.405788      1.076984
  H      -5.201490      2.077164     -0.079604
  C      -2.988996      0.473998     -0.487623
  H      -2.353520      1.336091     -0.258604
  C      -3.499116      0.667461     -1.922239
  H      -3.912696      1.674239     -2.027993
  H      -2.630792      0.642023     -2.586608
  C      -2.131720     -0.802594     -0.318234
  H      -1.875828     -1.186852     -1.309027
  H      -1.180195     -0.527113      0.144272
  C      -2.748804     -1.931536      0.508382
  H      -2.905972     -1.581250      1.528997
  H      -3.737607     -2.184310      0.121962
  C      -1.869896     -3.178698      0.525587
  H      -0.877019     -2.961552      0.928139
  H      -2.311888     -3.962370      1.144268
  H      -1.734744     -3.588348     -0.478853
  C      -4.535143     -0.355655     -2.377146
  H      -4.864891     -0.142709     -3.395944
  H      -4.134058     -1.370768     -2.368103
  H      -5.411492     -0.341435     -1.728779
24
Coordinates from ORCA-job 18 Relaxed Surface Scan Step 18
  O      -3.973336      0.536994      0.497371
  C      -4.547669      1.768544      0.767825
  H      -5.203895      1.646680      1.627785
  H      -3.790063      2.520736      1.014427
  H      -5.146188      2.146744     -0.066076
  C      -2.975672      0.489655     -0.484857
  H      -2.326753      1.363102     -0.353948
  C      -3.545362      0.596170     -1.907221
  H      -3.977955      1.592562     -2.033400
  H      -2.702027      0.560556     -2.602519
  C      -2.105497     -0.753951     -0.232405
  H      -1.611203     -1.022958     -1.170687
  H      -1.305244     -0.473456      0.458134
  C      -2.808879     -1.980211      0.352910
  H      -3.198492     -1.721401      1.337447
  H      -3.674247     -2.255589     -0.251241
  C      -1.872347     -3.179169      0.471913
  H      -1.006140     -2.947052      1.096942
  H      -2.382801     -4.033683      0.920804
  H      -1.497429     -3.494437     -0.505350
  C      -4.584060     -0.450570     -2.298611
  H      -5.008471     -0.217832     -3.277327
  H      -4.152037     -1.450041     -2.361386
  H      -5.400302     -0.483845     -1.576286
24
Coordinates from ORCA-job 18 Relaxed Surface Scan Step 19
  O      -3.916225      0.550655      0.517885
  C      -4.483118      1.796165      0.735882
  H      -5.121991      1.722362      1.614156
  H      -3.718925      2.557846      0.926608
  H      -5.096842      2.131518     -0.105618
  C      -2.953607      0.454169     -0.494793
  H      -2.294846      1.328198     -0.425504
  C      -3.571909      0.501082     -1.905263
  H      -3.801941      1.544412     -2.140596
  H      -2.797689      0.211132     -2.620830
  C      -2.063225     -0.751225     -0.181571
  H      -1.319318     -0.840200     -0.979662
  H      -1.509850     -0.498124      0.727144
  C      -2.745517     -2.100113      0.044503
  H      -3.549557     -1.972967      0.770643
  H      -3.208069     -2.452983     -0.878673
  C      -1.770006     -3.163461      0.541737
  H      -1.323043     -2.876378      1.496653
  H      -2.272416     -4.121963      0.686928
  H      -0.955057     -3.321936     -0.169477
  C      -4.833518     -0.328731     -2.134445
  H      -5.231203     -0.135240     -3.132895
  H      -4.649666     -1.398821     -2.058125
  H      -5.608530     -0.077850     -1.410443
24
Coordinates from ORCA-job 18 Relaxed Surface Scan Step 20
  O      -3.856345      0.606964      0.547533
  C      -4.425379      1.857030      0.730923
  H      -5.019788      1.821705      1.642217
  H      -3.661074      2.633659      0.846297
  H      -5.083444      2.145701     -0.094131
  C      -2.931289      0.467573     -0.496247
  H      -2.261670      1.339404     -0.490910
  C      -3.613025      0.462920     -1.876597
  H      -3.879830      1.494795     -2.118109
  H      -2.868786      0.170416     -2.622886
  C      -2.044197     -0.731199     -0.155592
  H      -1.189146     -0.737867     -0.837950
  H      -1.638665     -0.524643      0.838127
  C      -2.694199     -2.115298     -0.140129
  H      -3.658725     -2.059494      0.367291
  H      -2.897917     -2.442071     -1.162145
  C      -1.815540     -3.160958      0.540514
  H      -1.639333     -2.907796      1.588563
  H      -2.281469     -4.147987      0.511511
  H      -0.841034     -3.240807      0.051615
  C      -4.875229     -0.385354     -2.026832
  H      -5.325025     -0.209533     -3.006315
  H      -4.680448     -1.452212     -1.943762
  H      -5.614511     -0.127402     -1.268742
24
Coordinates from ORCA-job 18 Relaxed Surface Scan Step 21
  O      -3.824018      0.697746      0.573419
  C      -4.383032      1.960270      0.689849
  H      -4.913717      2.001865      1.639509
  H      -3.615204      2.742062      0.688511
  H      -5.097791      2.182049     -0.108160
  C      -2.923421      0.477314     -0.480056
  H      -2.230480      1.331871     -0.546196
  C      -3.648683      0.431309     -1.835873
  H      -3.970516      1.452019     -2.051763
  H      -2.920917      0.175489     -2.611528
  C      -2.064351     -0.726579     -0.077690
  H      -1.111136     -0.679064     -0.609048
  H      -1.823465     -0.565039      0.975238
  C      -2.652689     -2.128125     -0.244519
  H      -3.683749     -2.148306      0.111321
  H      -2.690725     -2.386505     -1.305702
  C      -1.836460     -3.188020      0.489257
  H      -1.826261     -3.003334      1.565910
  H      -2.247717     -4.186414      0.327370
  H      -0.798671     -3.198070      0.145998
  C      -4.887935     -0.457154     -1.949878
  H      -5.417537     -0.230924     -2.877803
  H      -4.653466     -1.518716     -1.961969
  H      -5.574126     -0.278197     -1.121950
24
Coordinates from ORCA-job 18 Relaxed Surface Scan Step 22
  O      -3.851417      0.817869      0.594439
  C      -4.350591      2.110419      0.597121
  H      -4.866680      2.264269      1.543332
  H      -3.547878      2.852115      0.516795
  H      -5.064756      2.291035     -0.211674
  C      -2.952377      0.466728     -0.425972
  H      -2.218334      1.279135     -0.548970
  C      -3.670353      0.364279     -1.782756
  H      -3.943460      1.383428     -2.063283
  H      -2.953153      0.027595     -2.536693
  C      -2.158641     -0.752472      0.080906
  H      -1.111943     -0.630935     -0.204459
  H      -2.171497     -0.671568      1.168910
  C      -2.598237     -2.160237     -0.320838
  H      -3.648215     -2.319036     -0.073867
  H      -2.518614     -2.278184     -1.404993
  C      -1.754807     -3.236403      0.356570
  H      -1.842574     -3.180517      1.444085
  H      -2.068677     -4.235946      0.049299
  H      -0.696602     -3.129640      0.104898
  C      -4.949285     -0.471836     -1.846105
  H      -5.481299     -0.260369     -2.776122
  H      -4.761418     -1.542364     -1.818671
  H      -5.615261     -0.229820     -1.017707
24
Coordinates from ORCA-job 18 Relaxed Surface Scan Step 23
  O      -3.895105      0.894279      0.598924
  C      -4.289834      2.220553      0.532922
  H      -4.840964      2.448183      1.443801
  H      -3.427751      2.894486      0.472852
  H      -4.943578      2.426518     -0.319863
  C      -3.007000      0.433802     -0.387289
  H      -2.234077      1.199841     -0.535318
  C      -3.711690      0.290993     -1.747114
  H      -3.877549      1.300080     -2.132269
  H      -3.022297     -0.178477     -2.452954
  C      -2.284168     -0.804190      0.198669
  H      -1.210161     -0.605580      0.175141
  H      -2.552310     -0.832820      1.255049
  C      -2.511836     -2.190911     -0.406163
  H      -3.555038     -2.487731     -0.297450
  H      -2.304625     -2.179229     -1.479306
  C      -1.630638     -3.247438      0.255337
  H      -1.825827     -3.309015      1.328529
  H      -1.811779     -4.235687     -0.171924
  H      -0.569830     -3.019381      0.125510
  C      -5.058074     -0.430806     -1.751444
  H      -5.515168     -0.360346     -2.740799
  H      -4.972759     -1.487385     -1.507359
  H      -5.744011      0.017808     -1.033239
24
Coordinates from ORCA-job 18 Relaxed Surface Scan Step 24
  O      -3.900726      0.922725      0.596930
  C      -4.226941      2.265892      0.505993
  H      -4.814573      2.525580      1.384843
  H      -3.331304      2.897156      0.489697
  H      -4.822210      2.497071     -0.382662
  C      -3.042934      0.407547     -0.388832
  H      -2.267025      1.157492     -0.564359
  C      -3.774272      0.209462     -1.729390
  H      -3.835653      1.176127     -2.238404
  H      -3.151759     -0.406737     -2.379487
  C      -2.344934     -0.831733      0.227526
  H      -1.300189     -0.564836      0.416553
  H      -2.801938     -0.986606      1.205197
  C      -2.346349     -2.159142     -0.532221
  H      -3.370496     -2.496687     -0.699271
  H      -1.893432     -2.036877     -1.519466
  C      -1.587793     -3.246345      0.224426
  H      -2.031320     -3.427977      1.206166
  H      -1.599185     -4.189786     -0.324849
  H      -0.543186     -2.966522      0.381187
  C      -5.177968     -0.383928     -1.629578
  H      -5.601660     -0.524211     -2.626268
  H      -5.184141     -1.351164     -1.127974
  H      -5.846081      0.271046     -1.071513
