21
Coordinates from ORCA-job 19 Relaxed Surface Scan Step 1
  O      -4.604359     -0.002710      0.863349
  C      -5.874027      0.533314      0.722601
  H      -5.962530      1.174358     -0.160689
  H      -6.575312     -0.292128      0.613848
  H      -6.164701      1.120142      1.601068
  C      -3.539199      0.900941      1.010354
  H      -3.916315      1.823428      1.465228
  C      -2.964186      1.264004     -0.353751
  H      -3.719097      1.760295     -0.965814
  H      -2.116521      1.944694     -0.254323
  H      -2.637924      0.373492     -0.889878
  C      -2.552881      0.285738      2.005752
  H      -1.823455      1.044156      2.307899
  H      -3.140991      0.062808      2.897881
  C      -1.834507     -0.995688      1.551306
  H      -1.681012     -1.633182      2.424557
  H      -2.495299     -1.560031      0.890027
  C      -0.474178     -0.783241      0.887982
  H       0.216801     -0.279413      1.568824
  H      -0.024680     -1.740156      0.613950
  H      -0.538164     -0.180788     -0.018285
21
Coordinates from ORCA-job 19 Relaxed Surface Scan Step 2
  O      -4.588573      0.250070      0.273183
  C      -5.718554      0.249975      1.075773
  H      -6.111544      1.262812      1.218209
  H      -6.479887     -0.346371      0.576077
  H      -5.537124     -0.188150      2.061563
  C      -3.521619      1.076755      0.654526
  H      -3.927936      2.030378      1.014046
  C      -2.721538      1.361564     -0.605501
  H      -3.352990      1.877217     -1.329421
  H      -1.855398      1.989230     -0.389355
  H      -2.378478      0.436061     -1.066802
  C      -2.716261      0.467141      1.810591
  H      -1.959130      1.191998      2.125742
  H      -3.392086      0.371508      2.662912
  C      -2.067670     -0.900025      1.533214
  H      -2.100792     -1.493301      2.450039
  H      -2.678273     -1.442256      0.808127
  C      -0.614309     -0.849521      1.063969
  H       0.020672     -0.367171      1.811474
  H      -0.225093     -1.857276      0.903903
  H      -0.495954     -0.300605      0.129619
21
Coordinates from ORCA-job 19 Relaxed Surface Scan Step 3
  O      -4.649882      0.223032      0.337360
  C      -5.802802      0.417387      1.083697
  H      -6.152617      1.453656      1.020172
  H      -6.575744     -0.232102      0.676735
  H      -5.669263      0.166515      2.140235
  C      -3.530287      0.996246      0.685505
  H      -3.876336      1.971918      1.040151
  C      -2.744997      1.243335     -0.591885
  H      -3.375284      1.776658     -1.303957
  H      -1.855493      1.844922     -0.398222
  H      -2.441718      0.305872     -1.056534
  C      -2.751955      0.334577      1.832958
  H      -2.086276      1.070827      2.295572
  H      -3.483019      0.095432      2.607594
  C      -1.977950     -0.945132      1.475026
  H      -1.970946     -1.605743      2.343946
  H      -2.526514     -1.486658      0.700685
  C      -0.524399     -0.737939      1.050249
  H       0.046205     -0.249475      1.844293
  H      -0.044201     -1.697045      0.844587
  H      -0.429059     -0.126249      0.153721
21
Coordinates from ORCA-job 19 Relaxed Surface Scan Step 4
  O      -4.720560      0.245558      0.357143
  C      -5.846612      0.555248      1.106485
  H      -6.123783      1.609523      0.997570
  H      -6.669404     -0.056800      0.741403
  H      -5.713826      0.346634      2.172468
  C      -3.541207      0.934457      0.687958
  H      -3.810315      1.930852      1.046872
  C      -2.767646      1.140494     -0.603978
  H      -3.396720      1.683540     -1.309500
  H      -1.860719      1.721843     -0.433567
  H      -2.496597      0.190986     -1.064025
  C      -2.799227      0.210457      1.828742
  H      -2.230328      0.934542      2.421235
  H      -3.571505     -0.152141      2.508958
  C      -1.906666     -0.978316      1.436699
  H      -1.858564     -1.668551      2.280465
  H      -2.386715     -1.537496      0.629615
  C      -0.465403     -0.633781      1.061136
  H       0.036306     -0.117844      1.883801
  H       0.101957     -1.543002      0.851100
  H      -0.395003      0.003831      0.181307
21
Coordinates from ORCA-job 19 Relaxed Surface Scan Step 5
  O      -4.790075      0.295506      0.360318
  C      -5.868774      0.678573      1.143970
  H      -6.062545      1.753810      1.062270
  H      -6.747001      0.141831      0.789649
  H      -5.726128      0.438044      2.202257
  C      -3.552447      0.883887      0.674153
  H      -3.736404      1.894789      1.046730
  C      -2.798514      1.045508     -0.636077
  H      -3.424356      1.604902     -1.331288
  H      -1.868689      1.596011     -0.493937
  H      -2.572291      0.082612     -1.092844
  C      -2.847244      0.090458      1.800142
  H      -2.377018      0.784667      2.503385
  H      -3.644493     -0.383252      2.374264
  C      -1.842548     -1.003338      1.404392
  H      -1.767705     -1.706840      2.235623
  H      -2.240696     -1.581784      0.566868
  C      -0.420665     -0.533665      1.096320
  H      -0.004418      0.021040      1.941190
  H       0.231323     -1.390897      0.915419
  H      -0.361849      0.108171      0.219085
21
Coordinates from ORCA-job 19 Relaxed Surface Scan Step 6
  O      -4.858635      0.362288      0.362670
  C      -5.866360      0.793906      1.210662
  H      -5.974443      1.884054      1.184817
  H      -6.800700      0.346928      0.875696
  H      -5.698358      0.493914      2.250128
  C      -3.564366      0.839506      0.634023
  H      -3.650113      1.862473      1.013731
  C      -2.853704      0.929758     -0.707228
  H      -3.464137      1.528014     -1.383254
  H      -1.879682      1.407765     -0.614590
  H      -2.722507     -0.052955     -1.159064
  C      -2.890157     -0.018146      1.740139
  H      -2.513690      0.637801      2.530159
  H      -3.695243     -0.589315      2.202922
  C      -1.782493     -1.012784      1.357655
  H      -1.726173     -1.758621      2.153817
  H      -2.067481     -1.566399      0.460081
  C      -0.381058     -0.425641      1.193362
  H      -0.070166      0.095298      2.102543
  H       0.345849     -1.218715      1.005842
  H      -0.308918      0.280905      0.367776
21
Coordinates from ORCA-job 19 Relaxed Surface Scan Step 7
  O      -4.916737      0.449874      0.365857
  C      -5.829628      0.897263      1.304982
  H      -5.829574      1.990955      1.377837
  H      -6.819954      0.573512      0.989639
  H      -5.640078      0.490674      2.303693
  C      -3.570342      0.800141      0.566423
  H      -3.540195      1.836357      0.925044
  C      -2.934388      0.768378     -0.814297
  H      -3.468981      1.462112     -1.462832
  H      -1.885548      1.059226     -0.789898
  H      -3.013691     -0.225104     -1.254981
  C      -2.926181     -0.105990      1.654875
  H      -2.639867      0.510078      2.512717
  H      -3.722726     -0.762430      2.005240
  C      -1.723420     -0.991405      1.293779
  H      -1.710566     -1.822192      2.004620
  H      -1.866171     -1.451321      0.314357
  C      -0.363908     -0.297308      1.354575
  H      -0.169296      0.086251      2.359177
  H       0.440237     -0.993248      1.106775
  H      -0.291522      0.544209      0.664306
21
Coordinates from ORCA-job 19 Relaxed Surface Scan Step 8
  O      -4.938124      0.546230      0.363816
  C      -5.770978      0.976055      1.380759
  H      -5.659826      2.050841      1.566702
  H      -6.798014      0.785391      1.074356
  H      -5.593181      0.448597      2.323166
  C      -3.559521      0.770346      0.517496
  H      -3.421244      1.803719      0.862192
  C      -2.980664      0.653821     -0.883241
  H      -3.478913      1.374538     -1.531167
  H      -1.910288      0.853066     -0.904090
  H      -3.160736     -0.340966     -1.291674
  C      -2.968860     -0.192509      1.584631
  H      -2.792475      0.361804      2.513444
  H      -3.752722     -0.920960      1.795220
  C      -1.687139     -0.974482      1.267163
  H      -1.670950     -1.839681      1.936502
  H      -1.732650     -1.391878      0.259962
  C      -0.391061     -0.187861      1.447900
  H      -0.285644      0.157827      2.479130
  H       0.478945     -0.805808      1.216714
  H      -0.348492      0.691944      0.802906
21
Coordinates from ORCA-job 19 Relaxed Surface Scan Step 9
  O      -4.938911      0.644843      0.369135
  C      -5.696199      1.047039      1.453854
  H      -5.453143      2.071645      1.759826
  H      -6.743352      1.018039      1.157553
  H      -5.570175      0.393999      2.322559
  C      -3.541392      0.736901      0.473654
  H      -3.289867      1.753214      0.806724
  C      -3.026645      0.554030     -0.944551
  H      -3.511133      1.284251     -1.592114
  H      -1.948633      0.695056     -1.011154
  H      -3.274213     -0.440751     -1.317923
  C      -3.009713     -0.282419      1.510433
  H      -2.955373      0.198502      2.495458
  H      -3.766571     -1.066561      1.575835
  C      -1.658351     -0.958079      1.253615
  H      -1.620683     -1.842661      1.896030
  H      -1.614213     -1.344452      0.233949
  C      -0.439910     -0.080885      1.528669
  H      -0.425725      0.255262      2.568294
  H       0.487721     -0.626747      1.345393
  H      -0.426055      0.809809      0.896650
21
Coordinates from ORCA-job 19 Relaxed Surface Scan Step 10
  O      -4.927480      0.713445      0.389863
  C      -5.614163      1.123815      1.518355
  H      -5.244763      2.086947      1.890230
  H      -6.661200      1.242591      1.244620
  H      -5.556655      0.398381      2.334983
  C      -3.524973      0.687400      0.440905
  H      -3.172179      1.672902      0.775412
  C      -3.076228      0.475303     -0.995473
  H      -3.551404      1.223613     -1.629071
  H      -1.996170      0.567217     -1.104275
  H      -3.381600     -0.510183     -1.351820
  C      -3.041403     -0.389504      1.431402
  H      -3.112286      0.004283      2.453132
  H      -3.752087     -1.216383      1.355688
  C      -1.628193     -0.948968      1.245601
  H      -1.550982     -1.840254      1.874295
  H      -1.495976     -1.308325      0.223268
  C      -0.504339      0.021176      1.600141
  H      -0.586589      0.356648      2.636883
  H       0.473286     -0.450247      1.482115
  H      -0.517152      0.910173      0.965633
21
Coordinates from ORCA-job 19 Relaxed Surface Scan Step 11
  O      -4.920949      0.713659      0.434236
  C      -5.529121      1.220233      1.569851
  H      -5.082419      2.172643      1.878231
  H      -6.577518      1.395366      1.334242
  H      -5.482888      0.531096      2.418015
  C      -3.521496      0.614265      0.420518
  H      -3.100581      1.565795      0.772448
  C      -3.134958      0.424115     -1.037004
  H      -3.594656      1.210522     -1.635048
  H      -2.055791      0.468360     -1.181186
  H      -3.497463     -0.536915     -1.406968
  C      -3.054641     -0.520589      1.343662
  H      -3.247644     -0.234367      2.383277
  H      -3.693749     -1.381829      1.130884
  C      -1.588893     -0.949872      1.236212
  H      -1.464409     -1.843245      1.853780
  H      -1.364747     -1.270813      0.216521
  C      -0.577164      0.106127      1.675014
  H      -0.762747      0.426770      2.703200
  H       0.440543     -0.286433      1.630266
  H      -0.611247      0.995143      1.041733
21
Coordinates from ORCA-job 19 Relaxed Surface Scan Step 12
  O      -4.926408      0.629136      0.524003
  C      -5.418261      1.356437      1.595125
  H      -5.073644      2.396406      1.569254
  H      -6.504762      1.353715      1.528158
  H      -5.136096      0.927757      2.561680
  C      -3.531812      0.515147      0.406130
  H      -3.071072      1.435442      0.784443
  C      -3.226458      0.397761     -1.078077
  H      -3.655260      1.248121     -1.608454
  H      -2.153634      0.377936     -1.270937
  H      -3.670375     -0.512543     -1.485272
  C      -3.040917     -0.678851      1.231443
  H      -3.357560     -0.534345      2.268587
  H      -3.575344     -1.561639      0.870918
  C      -1.535159     -0.957432      1.218607
  H      -1.363777     -1.872687      1.791153
  H      -1.202691     -1.182894      0.202225
  C      -0.667166      0.155785      1.802222
  H      -0.980633      0.409672      2.818089
  H       0.379306     -0.151777      1.847331
  H      -0.710811      1.068887      1.205260
21
Coordinates from ORCA-job 19 Relaxed Surface Scan Step 13
  O      -4.899897      0.648455      0.564350
  C      -5.227692      1.429650      1.661500
  H      -4.850375      2.452790      1.554571
  H      -6.313309      1.468994      1.730769
  H      -4.840860      1.020428      2.600060
  C      -3.532136      0.454321      0.314491
  H      -2.991073      1.351055      0.633261
  C      -3.368524      0.305919     -1.188879
  H      -3.730357      1.201046     -1.695484
  H      -2.324661      0.151451     -1.465127
  H      -3.952198     -0.544074     -1.546060
  C      -3.019373     -0.759041      1.099209
  H      -3.451309     -0.725564      2.101298
  H      -3.429734     -1.658539      0.632489
  C      -1.497988     -0.897944      1.222827
  H      -1.288964     -1.842332      1.732060
  H      -1.045189     -0.989578      0.231625
  C      -0.804122      0.222899      1.995918
  H      -1.245116      0.349445      2.988007
  H       0.255091     -0.002958      2.133153
  H      -0.864751      1.183609      1.481848
21
Coordinates from ORCA-job 19 Relaxed Surface Scan Step 14
  O      -4.831176      0.719014      0.584202
  C      -4.960584      1.508971      1.716080
  H      -4.491786      2.489683      1.578020
  H      -6.023023      1.657997      1.899968
  H      -4.522069      1.044587      2.604991
  C      -3.522421      0.406240      0.189120
  H      -2.887204      1.276892      0.382101
  C      -3.550186      0.169305     -1.311146
  H      -3.876968      1.069214     -1.832937
  H      -2.562423     -0.109175     -1.682885
  H      -4.249173     -0.634268     -1.548146
  C      -2.977086     -0.805928      0.965393
  H      -3.508249     -0.881777      1.915201
  H      -3.237774     -1.714313      0.416281
  C      -1.467139     -0.786067      1.227563
  H      -1.163473     -1.770956      1.590994
  H      -0.929387     -0.635965      0.285968
  C      -1.008550      0.254647      2.248007
  H      -1.497630      0.098137      3.212645
  H       0.068958      0.187930      2.410668
  H      -1.225192      1.275864      1.929799
21
Coordinates from ORCA-job 19 Relaxed Surface Scan Step 15
  O      -4.751790      0.771708      0.604912
  C      -4.743554      1.531044      1.764362
  H      -4.187120      2.465431      1.630278
  H      -5.775222      1.777237      2.009078
  H      -4.309541      0.995574      2.614165
  C      -3.503008      0.380131      0.102419
  H      -2.812060      1.224457      0.202819
  C      -3.686577      0.106452     -1.380287
  H      -4.040770      1.001799     -1.891784
  H      -2.745767     -0.208098     -1.836199
  H      -4.424157     -0.684478     -1.526045
  C      -2.931754     -0.840617      0.857919
  H      -3.553219     -1.028852      1.734660
  H      -3.046403     -1.727643      0.230380
  C      -1.461236     -0.723530      1.274569
  H      -1.118580     -1.700928      1.623503
  H      -0.852273     -0.489157      0.395054
  C      -1.178676      0.296597      2.375278
  H      -1.732005      0.054204      3.285778
  H      -0.116782      0.306970      2.628697
  H      -1.452041      1.311730      2.082332
21
Coordinates from ORCA-job 19 Relaxed Surface Scan Step 16
  O      -4.667535      0.807052      0.629222
  C      -4.563675      1.542520      1.798992
  H      -3.920755      2.420023      1.670136
  H      -5.562565      1.886105      2.062296
  H      -4.176050      0.952410      2.633298
  C      -3.479980      0.365709      0.027894
  H      -2.760169      1.192838      0.032667
  C      -3.822827      0.059664     -1.420437
  H      -4.239502      0.942838     -1.904945
  H      -2.935042     -0.257150     -1.970887
  H      -4.565338     -0.738789     -1.469718
  C      -2.867423     -0.857385      0.752653
  H      -3.568648     -1.178588      1.525411
  H      -2.820796     -1.691402      0.048742
  C      -1.459818     -0.674496      1.335748
  H      -1.114141     -1.644259      1.702772
  H      -0.775102     -0.399578      0.526521
  C      -1.315428      0.330669      2.475102
  H      -1.944951      0.059593      3.325551
  H      -0.282502      0.357582      2.827825
  H      -1.580291      1.344675      2.173044
21
Coordinates from ORCA-job 19 Relaxed Surface Scan Step 17
  O      -3.920602      0.845709      1.212724
  C      -4.343383      2.165450      1.210287
  H      -5.105662      2.361617      0.450458
  H      -4.776371      2.377492      2.186231
  H      -3.509087      2.855968      1.044275
  C      -3.264307      0.376714      0.066767
  H      -2.618422      1.175404     -0.322359
  C      -4.265820     -0.009547     -1.017206
  H      -4.889820      0.836892     -1.306394
  H      -3.751405     -0.361482     -1.913028
  H      -4.921017     -0.805302     -0.658397
  C      -2.376359     -0.800566      0.457266
  H      -3.011501     -1.614656      0.819483
  H      -1.907469     -1.162843     -0.461443
  C      -1.276953     -0.500529      1.485333
  H      -0.481784     -1.239771      1.354866
  H      -0.820443      0.467369      1.253713
  C      -1.714603     -0.525585      2.948199
  H      -2.127978     -1.502558      3.211502
  H      -0.862165     -0.341416      3.606395
  H      -2.477386      0.221673      3.153215
21
Coordinates from ORCA-job 19 Relaxed Surface Scan Step 18
  O      -3.906581      0.876225      1.166488
  C      -4.132812      2.242999      1.202630
  H      -4.788515      2.577738      0.391984
  H      -4.616990      2.476817      2.149146
  H      -3.197637      2.809891      1.142339
  C      -3.301731      0.357387      0.011926
  H      -2.733759      1.157065     -0.478658
  C      -4.363694     -0.137813     -0.961541
  H      -5.033772      0.671663     -1.255824
  H      -3.907531     -0.542267     -1.867202
  H      -4.964198     -0.920703     -0.495658
  C      -2.316816     -0.743379      0.404456
  H      -2.869291     -1.644607      0.686607
  H      -1.757854     -1.006165     -0.497905
  C      -1.334980     -0.364911      1.523951
  H      -0.408844     -0.927518      1.385516
  H      -1.058277      0.689097      1.423105
  C      -1.839684     -0.631102      2.940735
  H      -2.044396     -1.695479      3.083452
  H      -1.088415     -0.340725      3.679084
  H      -2.756758     -0.084181      3.147256
21
Coordinates from ORCA-job 19 Relaxed Surface Scan Step 19
  O      -4.003142      0.864525      1.095973
  C      -3.940791      2.238000      1.279083
  H      -4.407133      2.782114      0.450454
  H      -4.483796      2.477950      2.191691
  H      -2.911698      2.594316      1.386043
  C      -3.370112      0.337037     -0.042137
  H      -2.889369      1.156455     -0.586477
  C      -4.423087     -0.273996     -0.954739
  H      -5.141302      0.483105     -1.273717
  H      -3.966891     -0.711103     -1.845287
  H      -4.969207     -1.056086     -0.425097
  C      -2.286839     -0.675032      0.349855
  H      -2.747317     -1.644004      0.564797
  H      -1.667390     -0.835922     -0.537173
  C      -1.393066     -0.262933      1.529152
  H      -0.427253     -0.762652      1.430094
  H      -1.175464      0.807406      1.469235
  C      -1.952339     -0.603065      2.909710
  H      -2.085518     -1.683105      3.013997
  H      -1.263738     -0.281545      3.694765
  H      -2.917083     -0.131434      3.081667
21
Coordinates from ORCA-job 19 Relaxed Surface Scan Step 20
  O      -3.959596      0.951835      1.073072
  C      -3.809828      2.323604      1.218380
  H      -4.289664      2.872565      0.400745
  H      -4.289277      2.614155      2.151630
  H      -2.759592      2.625972      1.261734
  C      -3.383764      0.360029     -0.063499
  H      -3.010732      1.158298     -0.711733
  C      -4.470384     -0.380078     -0.827603
  H      -5.254396      0.308955     -1.145306
  H      -4.060656     -0.870153     -1.713309
  H      -4.924041     -1.140843     -0.190275
  C      -2.201972     -0.565063      0.298751
  H      -2.548790     -1.600198      0.369641
  H      -1.512394     -0.553045     -0.549999
  C      -1.433580     -0.215649      1.581183
  H      -0.435424     -0.653585      1.516733
  H      -1.275918      0.863769      1.640979
  C      -2.081622     -0.718499      2.870012
  H      -2.158506     -1.809109      2.861558
  H      -1.480204     -0.440528      3.738851
  H      -3.082196     -0.312400      3.000345
21
Coordinates from ORCA-job 19 Relaxed Surface Scan Step 21
  O      -3.870298      1.072164      1.066653
  C      -3.730785      2.451199      1.087416
  H      -4.275867      2.926609      0.264694
  H      -4.143880      2.814733      2.026789
  H      -2.683137      2.763248      1.028233
  C      -3.370903      0.394625     -0.057890
  H      -3.104040      1.140558     -0.812024
  C      -4.488655     -0.463280     -0.629472
  H      -5.344432      0.155393     -0.903651
  H      -4.151576     -1.002834     -1.516907
  H      -4.819247     -1.192355      0.112444
  C      -2.100245     -0.436128      0.266744
  H      -2.323956     -1.501231      0.158609
  H      -1.352064     -0.219932     -0.500150
  C      -1.468082     -0.217536      1.646325
  H      -0.448698     -0.611558      1.612339
  H      -1.368214      0.850847      1.848482
  C      -2.207329     -0.893248      2.798547
  H      -2.254895     -1.975227      2.647626
  H      -1.691388     -0.717816      3.745481
  H      -3.224847     -0.518196      2.891600
21
Coordinates from ORCA-job 19 Relaxed Surface Scan Step 22
  O      -3.195599      1.560369      0.979831
  C      -3.982213      2.659395      0.674229
  H      -5.044164      2.409391      0.597279
  H      -3.863066      3.385689      1.476233
  H      -3.671541      3.128703     -0.265977
  C      -3.066492      0.562928      0.005424
  H      -2.899505      1.047845     -0.965446
  C      -4.332038     -0.283162     -0.123935
  H      -5.190454      0.328430     -0.404969
  H      -4.200337     -1.035123     -0.903903
  H      -4.573513     -0.794321      0.806510
  C      -1.799440     -0.249469      0.316716
  H      -1.868586     -1.205240     -0.211453
  H      -0.950691      0.280352     -0.122311
  C      -1.455793     -0.494830      1.789819
  H      -0.480721     -0.991857      1.806472
  H      -1.316571      0.468945      2.280013
  C      -2.445355     -1.327969      2.599090
  H      -2.665309     -2.282136      2.112527
  H      -2.035646     -1.550408      3.586693
  H      -3.385500     -0.797499      2.749045
21
Coordinates from ORCA-job 19 Relaxed Surface Scan Step 23
  O      -3.070648      1.810963      0.795986
  C      -3.917780      2.832667      0.397316
  H      -4.970434      2.604355      0.586838
  H      -3.656504      3.722066      0.968069
  H      -3.802470      3.060750     -0.668489
  C      -3.074521      0.632620      0.038627
  H      -2.947647      0.902193     -1.019294
  C      -4.392771     -0.126162      0.176316
  H      -5.212209      0.412464     -0.301552
  H      -4.325006     -1.105649     -0.299472
  H      -4.653091     -0.266308      1.225214
  C      -1.825572     -0.162781      0.424084
  H      -1.808783     -1.081267     -0.170971
  H      -0.974995      0.437101      0.094437
  C      -1.621973     -0.497807      1.908915
  H      -0.545813     -0.601753      2.073876
  H      -1.936595      0.355191      2.511852
  C      -2.295950     -1.775092      2.408391
  H      -1.979774     -2.642386      1.822852
  H      -2.026600     -1.967248      3.449215
  H      -3.383400     -1.723884      2.359677
21
Coordinates from ORCA-job 19 Relaxed Surface Scan Step 24
  O      -3.100855      1.853441      0.777261
  C      -3.844640      2.904043      0.265396
  H      -4.922545      2.726207      0.324482
  H      -3.615713      3.790640      0.853974
  H      -3.588176      3.108304     -0.780293
  C      -3.128570      0.636460      0.081316
  H      -3.059618      0.846257     -0.994051
  C      -4.433146     -0.115419      0.327711
  H      -5.284497      0.430396     -0.081220
  H      -4.411172     -1.095410     -0.152039
  H      -4.607795     -0.252546      1.394725
  C      -1.858052     -0.124987      0.462156
  H      -1.778543     -1.016156     -0.168147
  H      -1.028874      0.525747      0.178969
  C      -1.701319     -0.507642      1.943301
  H      -0.638547     -0.467260      2.193789
  H      -2.178633      0.255007      2.561270
  C      -2.215983     -1.896023      2.321480
  H      -1.703322     -2.672709      1.748126
  H      -2.037019     -2.098218      3.379753
  H      -3.285519     -2.010099      2.143929
