20
Coordinates from ORCA-job 2 Relaxed Surface Scan Step 1
  C      -0.707578      0.581878     -0.391264
  H      -0.492855      1.633399     -0.588706
  C      -1.321262     -0.050625     -1.645059
  H      -1.537343     -1.102057     -1.447454
  H      -2.284042      0.436330     -1.821171
  C      -1.655222      0.495101      0.812682
  H      -1.219851      0.974200      1.690671
  H      -2.596827      0.997683      0.587370
  H      -1.876906     -0.543942      1.062306
  C       0.629843     -0.015797     -0.000067
  O       1.552867      0.614052      0.392355
  O       0.654397     -1.335441     -0.096217
  C       1.843880     -2.002528      0.260273
  H       1.661244     -3.060236      0.098088
  H       2.673643     -1.667649     -0.358549
  H       2.089581     -1.821971      1.304637
  C      -0.461059      0.076962     -2.898477
  H       0.491531     -0.444924     -2.788650
  H      -0.970609     -0.353076     -3.762493
  H      -0.245111      1.123091     -3.127185
20
Coordinates from ORCA-job 2 Relaxed Surface Scan Step 2
  C      -0.703432      0.574414     -0.386694
  H      -0.449035      1.611280     -0.616723
  C      -1.324054     -0.076741     -1.626150
  H      -1.546791     -1.123108     -1.409940
  H      -2.284802      0.412884     -1.805843
  C      -1.671757      0.573561      0.805147
  H      -1.228516      1.070950      1.667876
  H      -2.591109      1.099241      0.544117
  H      -1.937042     -0.445822      1.093609
  C       0.605451     -0.043656      0.069833
  O       1.441242      0.554241      0.659275
  O       0.711186     -1.332439     -0.205842
  C       1.891089     -1.996702      0.187774
  H       1.789201     -3.024000     -0.147826
  H       2.763098     -1.537381     -0.272630
  H       2.008024     -1.966904      1.268964
  C      -0.472997      0.026591     -2.888204
  H       0.480472     -0.491132     -2.774803
  H      -0.989163     -0.419949     -3.739951
  H      -0.262746      1.069120     -3.138900
20
Coordinates from ORCA-job 2 Relaxed Surface Scan Step 3
  C      -0.696961      0.555508     -0.376588
  H      -0.385103      1.568769     -0.644107
  C      -1.325923     -0.110661     -1.604336
  H      -1.544821     -1.155525     -1.376396
  H      -2.290191      0.373861     -1.777993
  C      -1.690852      0.665780      0.788758
  H      -1.233838      1.165217      1.641832
  H      -2.567441      1.238239      0.483404
  H      -2.030552     -0.321975      1.109304
  C       0.572324     -0.096859      0.146605
  O       1.295856      0.431421      0.922266
  O       0.788346     -1.318115     -0.308367
  C       1.953602     -1.985389      0.123543
  H       1.955361     -2.949223     -0.375769
  H       2.842946     -1.421040     -0.148020
  H       1.940847     -2.123442      1.202479
  C      -0.495283     -0.014688     -2.880852
  H       0.464973     -0.519628     -2.777265
  H      -1.022196     -0.475500     -3.718477
  H      -0.302774      1.027700     -3.146931
20
Coordinates from ORCA-job 2 Relaxed Surface Scan Step 4
  C      -0.687651      0.528062     -0.360850
  H      -0.299545      1.503898     -0.670978
  C      -1.327907     -0.152726     -1.577780
  H      -1.530824     -1.199555     -1.342727
  H      -2.301595      0.317461     -1.735651
  C      -1.704367      0.773541      0.761451
  H      -1.232469      1.260325      1.612407
  H      -2.514506      1.409160      0.402532
  H      -2.143271     -0.166506      1.104666
  C       0.526358     -0.175366      0.229521
  O       1.105694      0.228629      1.181309
  O       0.887520     -1.276847     -0.402788
  C       2.027660     -1.962371      0.066337
  H       2.160278     -2.816702     -0.590011
  H       2.905033     -1.320580      0.028248
  H       1.881050     -2.297054      1.090852
  C      -0.529503     -0.051040     -2.874598
  H       0.442046     -0.535575     -2.791920
  H      -1.070274     -0.525922     -3.695560
  H      -0.365407      0.993620     -3.151371
20
Coordinates from ORCA-job 2 Relaxed Surface Scan Step 5
  C      -0.672452      0.498006     -0.344345
  H      -0.193105      1.416167     -0.703584
  C      -1.331740     -0.202954     -1.546136
  H      -1.498672     -1.255835     -1.307303
  H      -2.323005      0.237510     -1.674597
  C      -1.695066      0.897337      0.722840
  H      -1.210857      1.380196      1.568286
  H      -2.428105      1.585269      0.300075
  H      -2.231510      0.022098      1.096540
  C       0.462948     -0.278562      0.307556
  O       0.841720     -0.088998      1.414311
  O       1.020336     -1.178266     -0.483209
  C       2.107041     -1.920905      0.022853
  H       2.414443     -2.591288     -0.773655
  H       2.929051     -1.263108      0.296545
  H       1.807960     -2.492938      0.898351
  C      -0.581147     -0.082925     -2.869656
  H       0.405961     -0.537953     -2.818754
  H      -1.138046     -0.574076     -3.670198
  H      -0.457436      0.965676     -3.152832
20
Coordinates from ORCA-job 2 Relaxed Surface Scan Step 6
  C      -0.654350      0.483159     -0.337188
  H      -0.096282      1.335717     -0.739147
  C      -1.348658     -0.234674     -1.517165
  H      -1.504912     -1.287025     -1.264138
  H      -2.346083      0.197366     -1.621713
  C      -1.655276      1.007112      0.691182
  H      -1.150630      1.496694      1.521613
  H      -2.330091      1.724633      0.222472
  H      -2.255318      0.193617      1.102706
  C       0.388537     -0.384582      0.345550
  O       0.509768     -0.501818      1.518001
  O       1.181933     -1.003941     -0.512878
  C       2.182821     -1.852148      0.002518
  H       2.705260     -2.263351     -0.855599
  H       2.875699     -1.295007      0.629434
  H       1.742939     -2.654147      0.591400
  C      -0.635509     -0.129911     -2.862094
  H       0.353769     -0.581498     -2.831341
  H      -1.214439     -0.631199     -3.640479
  H      -0.520857      0.915454     -3.160044
20
Coordinates from ORCA-job 2 Relaxed Surface Scan Step 7
  C      -0.653221      0.489458     -0.335745
  H      -0.057416      1.311777     -0.742035
  C      -1.395346     -0.192182     -1.509932
  H      -1.684242     -1.205494     -1.214304
  H      -2.331260      0.350689     -1.657880
  C      -1.625292      1.045824      0.702031
  H      -1.096458      1.502316      1.537680
  H      -2.265797      1.801841      0.245632
  H      -2.259193      0.256352      1.106946
  C       0.330123     -0.458559      0.323770
  O       0.260685     -0.839039      1.443379
  O       1.298096     -0.836714     -0.495676
  C       2.250307     -1.758127     -0.014701
  H       2.939539     -1.939671     -0.833497
  H       2.785469     -1.349488      0.839702
  H       1.771155     -2.688453      0.283058
  C      -0.647671     -0.234590     -2.839538
  H       0.269629     -0.815527     -2.774476
  H      -1.278212     -0.678883     -3.612345
  H      -0.382574      0.772922     -3.168981
20
Coordinates from ORCA-job 2 Relaxed Surface Scan Step 8
  C      -0.658482      0.500047     -0.339429
  H      -0.038783      1.309884     -0.731132
  C      -1.445755     -0.118012     -1.516937
  H      -1.901121     -1.055623     -1.184536
  H      -2.275323      0.557730     -1.736593
  C      -1.599476      1.053857      0.728558
  H      -1.044678      1.475467      1.567027
  H      -2.225483      1.840402      0.304742
  H      -2.246532      0.270784      1.123108
  C       0.285194     -0.517694      0.270510
  O       0.078520     -1.118573      1.270369
  O       1.381812     -0.688416     -0.450106
  C       2.307354     -1.662864     -0.024985
  H       3.120321     -1.645806     -0.744141
  H       2.683404     -1.430869      0.969005
  H       1.847671     -2.648976     -0.004913
  C      -0.657317     -0.354143     -2.802204
  H       0.141645     -1.081221     -2.668459
  H      -1.321117     -0.723910     -3.586115
  H      -0.203534      0.572385     -3.160679
20
Coordinates from ORCA-job 2 Relaxed Surface Scan Step 9
  C      -0.659429      0.504408     -0.356631
  H      -0.018377      1.302706     -0.734383
  C      -1.491217     -0.048420     -1.531574
  H      -2.071150     -0.904932     -1.177519
  H      -2.216438      0.721074     -1.806525
  C      -1.558053      1.052694      0.751228
  H      -0.969728      1.453994      1.577810
  H      -2.185496      1.856486      0.363255
  H      -2.202469      0.270764      1.151511
  C       0.249790     -0.576751      0.192409
  O      -0.063598     -1.360654      1.023879
  O       1.443602     -0.575998     -0.376586
  C       2.356160     -1.581824      0.001278
  H       3.259057     -1.406944     -0.575327
  H       2.575369     -1.524577      1.065221
  H       1.956357     -2.568979     -0.221909
  C      -0.694655     -0.443951     -2.771800
  H      -0.009119     -1.268695     -2.575289
  H      -1.369911     -0.759240     -3.569281
  H      -0.102376      0.393289     -3.146678
20
Coordinates from ORCA-job 2 Relaxed Surface Scan Step 10
  C      -0.648601      0.491799     -0.397109
  H       0.008535      1.274832     -0.777203
  C      -1.538702     -0.007610     -1.548371
  H      -2.173621     -0.814270     -1.174144
  H      -2.207088      0.810176     -1.828852
  C      -1.484063      1.045373      0.758550
  H      -0.849681      1.423407      1.562358
  H      -2.109760      1.868757      0.410877
  H      -2.128056      0.271260      1.174971
  C       0.233202     -0.637330      0.098095
  O      -0.154429     -1.552003      0.744488
  O       1.492696     -0.510611     -0.281348
  C       2.400525     -1.521590      0.094724
  H       3.365460     -1.230318     -0.308134
  H       2.457634     -1.605416      1.177846
  H       2.099370     -2.483027     -0.316177
  C      -0.778308     -0.480019     -2.784166
  H      -0.150436     -1.347047     -2.570393
  H      -1.473943     -0.768937     -3.573869
  H      -0.132414      0.307027     -3.179055
20
Coordinates from ORCA-job 2 Relaxed Surface Scan Step 11
  C      -0.627002      0.461748     -0.457277
  H       0.037302      1.227562     -0.858829
  C      -1.588458      0.000139     -1.561476
  H      -2.219238     -0.798038     -1.164676
  H      -2.251359      0.835713     -1.799944
  C      -1.380013      1.035061      0.747470
  H      -0.689786      1.378759      1.520329
  H      -1.989078      1.886729      0.441069
  H      -2.034181      0.282070      1.187432
  C       0.239231     -0.694691      0.001877
  O      -0.184690     -1.699941      0.465311
  O       1.530569     -0.468067     -0.159492
  C       2.432830     -1.474273      0.242511
  H       3.427241     -1.094887      0.029349
  H       2.331550     -1.680793      1.305850
  H       2.257173     -2.393702     -0.311964
  C      -0.897105     -0.474033     -2.836363
  H      -0.272538     -1.351451     -2.655336
  H      -1.632564     -0.750816     -3.593614
  H      -0.261564      0.307360     -3.259137
20
Coordinates from ORCA-job 2 Relaxed Surface Scan Step 12
  C      -0.601315      0.427162     -0.520377
  H       0.062761      1.178019     -0.950245
  C      -1.631284     -0.004893     -1.569701
  H      -2.242544     -0.807199     -1.152787
  H      -2.300273      0.839910     -1.752713
  C      -1.267416      1.023250      0.726562
  H      -0.523388      1.331987      1.463105
  H      -1.855434      1.901438      0.456503
  H      -1.931463      0.295993      1.195649
  C       0.261289     -0.742837     -0.090323
  O      -0.156121     -1.816096      0.189888
  O       1.544062     -0.432699     -0.024864
  C       2.444466     -1.431468      0.398968
  H       3.431057     -0.979092      0.383325
  H       2.203282     -1.767192      1.405370
  H       2.415290     -2.286671     -0.272885
  C      -1.021031     -0.459490     -2.892172
  H      -0.391105     -1.341679     -2.761424
  H      -1.802003     -0.721778     -3.607906
  H      -0.410509      0.327785     -3.340882
20
Coordinates from ORCA-job 2 Relaxed Surface Scan Step 13
  C      -0.574898      0.398703     -0.575545
  H       0.082120      1.138711     -1.036039
  C      -1.663008     -0.011604     -1.571053
  H      -2.257526     -0.815395     -1.133716
  H      -2.333950      0.840962     -1.704748
  C      -1.162817      1.014645      0.702487
  H      -0.374996      1.307187      1.397834
  H      -1.744154      1.904627      0.458412
  H      -1.821774      0.306137      1.207632
  C       0.295500     -0.777150     -0.179299
  O      -0.076148     -1.898652     -0.089332
  O       1.532520     -0.407104      0.105343
  C       2.436136     -1.398080      0.539834
  H       3.379817     -0.892738      0.719746
  H       2.083700     -1.868095      1.455634
  H       2.562778     -2.164493     -0.221897
  C      -1.132383     -0.450471     -2.932618
  H      -0.502691     -1.337575     -2.849211
  H      -1.955277     -0.696267     -3.606094
  H      -0.544629      0.341102     -3.404281
20
Coordinates from ORCA-job 2 Relaxed Surface Scan Step 14
  C      -0.546266      0.379727     -0.622437
  H       0.096448      1.111038     -1.119026
  C      -1.683621     -0.024675     -1.563260
  H      -2.253034     -0.833327     -1.101201
  H      -2.362853      0.827445     -1.649358
  C      -1.069588      1.017645      0.673310
  H      -0.249915      1.318008      1.325263
  H      -1.661864      1.903641      0.442069
  H      -1.707656      0.320396      1.220524
  C       0.343362     -0.794843     -0.264400
  O       0.052200     -1.938060     -0.372800
  O       1.504297     -0.396738      0.229780
  C       2.412148     -1.382692      0.665923
  H       3.283583     -0.852445      1.037039
  H       1.976019     -1.985494      1.459835
  H       2.695802     -2.036616     -0.156028
  C      -1.232581     -0.444562     -2.959057
  H      -0.596510     -1.328964     -2.924173
  H      -2.094062     -0.682292     -3.585740
  H      -0.677587      0.357258     -3.453173
20
Coordinates from ORCA-job 2 Relaxed Surface Scan Step 15
  C      -0.514482      0.370574     -0.663663
  H       0.103705      1.093158     -1.206188
  C      -1.693817     -0.050721     -1.545380
  H      -2.218385     -0.875100     -1.056842
  H      -2.395792      0.786396     -1.578158
  C      -0.985612      1.039819      0.635546
  H      -0.143943      1.370607      1.240883
  H      -1.603207      1.908199      0.404290
  H      -1.588739      0.351687      1.232562
  C       0.405732     -0.793385     -0.342657
  O       0.228040     -1.922776     -0.653350
  O       1.460984     -0.405514      0.355264
  C       2.374317     -1.390639      0.780718
  H       3.143563     -0.870969      1.343315
  H       1.881614     -2.125831      1.413599
  H       2.817091     -1.901472     -0.071759
  C      -1.326047     -0.440103     -2.974108
  H      -0.670941     -1.309377     -2.996295
  H      -2.223213     -0.683293     -3.546572
  H      -0.822548      0.383189     -3.488115
20
Coordinates from ORCA-job 2 Relaxed Surface Scan Step 16
  C      -0.481315      0.372229     -0.699722
  H       0.099661      1.083102     -1.299011
  C      -1.694635     -0.090876     -1.517437
  H      -2.153230     -0.942425     -1.007695
  H      -2.432728      0.714444     -1.490073
  C      -0.909248      1.086042      0.588646
  H      -0.052503      1.460920      1.143374
  H      -1.557336      1.928796      0.346517
  H      -1.469323      0.412889      1.242166
  C       0.478931     -0.770338     -0.410195
  O       0.449027     -1.839908     -0.919757
  O       1.392385     -0.441196      0.487827
  C       2.322275     -1.424161      0.880756
  H       2.955284     -0.962003      1.631761
  H       1.813795     -2.288949      1.301648
  H       2.923955     -1.748146      0.034145
  C      -1.412232     -0.440986     -2.975574
  H      -0.727117     -1.281360     -3.061410
  H      -2.339067     -0.705721     -3.488467
  H      -0.978259      0.412096     -3.504410
20
Coordinates from ORCA-job 2 Relaxed Surface Scan Step 17
  C      -0.449638      0.389312     -0.731437
  H       0.081696      1.087130     -1.389619
  C      -1.687489     -0.134020     -1.481759
  H      -2.072755     -1.012063     -0.955343
  H      -2.463116      0.630922     -1.398880
  C      -0.841602      1.148280      0.539682
  H       0.026518      1.563787      1.045529
  H      -1.515120      1.967307      0.285304
  H      -1.360367      0.495183      1.244837
  C       0.556075     -0.722162     -0.468764
  O       0.702366     -1.678750     -1.153812
  O       1.291713     -0.510130      0.608332
  C       2.254981     -1.478825      0.954713
  H       2.728033     -1.125362      1.865529
  H       1.784760     -2.444349      1.127957
  H       2.996581     -1.585799      0.165946
  C      -1.483727     -0.457201     -2.959154
  H      -0.763731     -1.259331     -3.099864
  H      -2.429362     -0.761266     -3.412823
  H      -1.127497      0.421787     -3.503283
20
Coordinates from ORCA-job 2 Relaxed Surface Scan Step 18
  C      -0.423397      0.429071     -0.757746
  H       0.050929      1.121578     -1.461630
  C      -1.675264     -0.156625     -1.443638
  H      -2.010451     -1.035535     -0.884447
  H      -2.472556      0.583230     -1.341516
  C      -0.789121      1.209999      0.505474
  H       0.087335      1.652252      0.974556
  H      -1.482466      2.012764      0.251646
  H      -1.272287      0.567168      1.243258
  C       0.628838     -0.645251     -0.525000
  O       0.956448     -1.445091     -1.337006
  O       1.174377     -0.601018      0.676798
  C       2.176113     -1.544275      0.984032
  H       2.483027     -1.339997      2.004975
  H       1.788202     -2.557487      0.905329
  H       3.023773     -1.439202      0.310374
  C      -1.526167     -0.507497     -2.921131
  H      -0.783647     -1.285458     -3.078619
  H      -2.480770     -0.853742     -3.322907
  H      -1.224596      0.369565     -3.499710
20
Coordinates from ORCA-job 2 Relaxed Surface Scan Step 19
  C      -0.405510      0.486420     -0.778758
  H       0.011696      1.178257     -1.516139
  C      -1.660913     -0.162065     -1.402125
  H      -1.963196     -1.019402     -0.792538
  H      -2.472207      0.564593     -1.316025
  C      -0.749955      1.273792      0.485198
  H       0.133427      1.734312      0.925496
  H      -1.460086      2.065342      0.241952
  H      -1.201495      0.632664      1.242914
  C       0.689596     -0.548001     -0.575362
  O       1.182737     -1.170062     -1.456329
  O       1.055306     -0.699313      0.684517
  C       2.088494     -1.616647      0.966881
  H       2.236009     -1.586982      2.041875
  H       1.809298     -2.620563      0.654822
  H       3.005383     -1.331879      0.455344
  C      -1.535859     -0.585132     -2.862717
  H      -0.772179     -1.346890     -3.001321
  H      -2.488134     -0.981672     -3.220991
  H      -1.274091      0.267680     -3.493604
20
Coordinates from ORCA-job 2 Relaxed Surface Scan Step 20
  C      -0.394537      0.547615     -0.796228
  H      -0.029924      1.238487     -1.559735
  C      -1.644367     -0.163718     -1.358305
  H      -1.914406     -0.991960     -0.695948
  H      -2.472447      0.546837     -1.301206
  C      -0.720018      1.338973      0.470062
  H       0.167342      1.821089      0.881013
  H      -1.449998      2.116556      0.240287
  H      -1.137206      0.696444      1.245174
  C       0.738826     -0.445569     -0.613916
  O       1.377219     -0.890940     -1.508184
  O       0.945645     -0.790860      0.644526
  C       1.996841     -1.689935      0.918656
  H       2.005385     -1.829213      1.995139
  H       1.830950     -2.642167      0.419583
  H       2.948568     -1.280485      0.586930
  C      -1.523196     -0.668099     -2.793168
  H      -0.733761     -1.409933     -2.899982
  H      -2.463533     -1.121185     -3.113445
  H      -1.299061      0.152512     -3.478162
20
Coordinates from ORCA-job 2 Relaxed Surface Scan Step 21
  C      -0.389904      0.601870     -0.810577
  H      -0.069685      1.289911     -1.594812
  C      -1.630010     -0.162385     -1.316309
  H      -1.877062     -0.955242     -0.604452
  H      -2.471841      0.534055     -1.297291
  C      -0.697053      1.400288      0.456770
  H       0.190615      1.912024      0.831969
  H      -1.453267      2.157041      0.242617
  H      -1.071762      0.756139      1.251507
  C       0.777436     -0.350534     -0.638556
  O       1.546357     -0.624634     -1.497751
  O       0.847753     -0.875212      0.573112
  C       1.911046     -1.758223      0.851721
  H       1.796049     -2.056200      1.889166
  H       1.867895     -2.631883      0.204925
  H       2.868996     -1.262580      0.709291
  C      -1.500216     -0.748738     -2.719182
  H      -0.692774     -1.477600     -2.785406
  H      -2.427584     -1.246242     -3.009355
  H      -1.296670      0.032594     -3.454297
20
Coordinates from ORCA-job 2 Relaxed Surface Scan Step 22
  C      -0.390072      0.649472     -0.820835
  H      -0.104427      1.332334     -1.621851
  C      -1.619128     -0.156967     -1.278493
  H      -1.857790     -0.906075     -0.519242
  H      -2.469370      0.528946     -1.309123
  C      -0.682801      1.459662      0.443926
  H       0.199514      2.008018      0.779176
  H      -1.470322      2.187900      0.244233
  H      -1.009356      0.816004      1.260074
  C       0.808202     -0.261401     -0.645730
  O       1.687657     -0.375540     -1.431204
  O       0.766358     -0.949908      0.483672
  C       1.836236     -1.822379      0.768219
  H       1.616443     -2.270873      1.732021
  H       1.918032     -2.595211      0.006831
  H       2.775831     -1.276034      0.816266
  C      -1.469664     -0.828811     -2.640569
  H      -0.656843     -1.556349     -2.652122
  H      -2.388122     -1.353308     -2.910188
  H      -1.262057     -0.095029     -3.421970
20
Coordinates from ORCA-job 2 Relaxed Surface Scan Step 23
  C      -0.393012      0.686192     -0.828977
  H      -0.128826      1.360658     -1.644087
  C      -1.614781     -0.146489     -1.248242
  H      -1.862128     -0.846157     -0.446895
  H      -2.464565      0.535231     -1.336206
  C      -0.673971      1.513840      0.428979
  H       0.200580      2.096742      0.724128
  H      -1.490480      2.212687      0.241210
  H      -0.955297      0.875449      1.266329
  C       0.830319     -0.187003     -0.637575
  O       1.803410     -0.146698     -1.311342
  O       0.700462     -1.022695      0.381193
  C       1.778884     -1.880291      0.677409
  H       1.473349     -2.470161      1.535957
  H       1.996466     -2.532988     -0.165408
  H       2.672090     -1.307256      0.917317
  C      -1.441777     -0.903800     -2.561639
  H      -0.636063     -1.638567     -2.505723
  H      -2.356712     -1.440097     -2.819235
  H      -1.209628     -0.224146     -3.384104
20
Coordinates from ORCA-job 2 Relaxed Surface Scan Step 24
  C      -0.394579      0.708847     -0.835037
  H      -0.139141      1.366153     -1.667060
  C      -1.612876     -0.140066     -1.221885
  H      -1.870950     -0.796215     -0.388416
  H      -2.459114      0.538695     -1.356222
  C      -0.669692      1.567133      0.405310
  H       0.198326      2.175523      0.665341
  H      -1.505351      2.242471      0.216058
  H      -0.921760      0.945427      1.265113
  C       0.847248     -0.130007     -0.609854
  O       1.890605      0.052103     -1.139645
  O       0.654012     -1.094101      0.276809
  C       1.741634     -1.933582      0.590805
  H       1.374053     -2.651073      1.317807
  H       2.098577     -2.451313     -0.296987
  H       2.562219     -1.359157      1.015690
  C      -1.424946     -0.964890     -2.491566
  H      -0.625118     -1.700420     -2.382010
  H      -2.337837     -1.510721     -2.735995
  H      -1.176991     -0.330357     -3.345168
