24
Coordinates from ORCA-job 20 Relaxed Surface Scan Step 1
  C      69.579102    -15.787607     -3.186198
  H      69.861733    -14.868951     -3.707545
  H      69.031416    -16.394555     -3.906150
  C      68.673929    -15.461807     -1.995279
  H      68.431568    -16.401339     -1.493410
  H      69.265639    -14.894483     -1.271108
  C      67.353750    -14.689780     -2.257362
  H      66.509740    -15.293049     -1.916718
  H      67.348334    -13.787922     -1.641937
  C      67.024057    -14.266554     -3.685854
  H      67.882660    -13.744815     -4.125043
  O      66.764761    -15.428845     -4.426694
  C      66.864053    -15.342659     -5.806341
  H      66.708611    -16.340237     -6.213374
  H      66.112440    -14.677805     -6.241675
  H      67.853795    -14.991855     -6.119165
  C      65.825798    -13.321295     -3.712473
  H      65.565265    -13.032244     -4.731074
  H      64.954323    -13.801790     -3.264033
  H      66.041991    -12.407431     -3.156720
  C      70.848411    -16.520445     -2.760848
  H      71.480327    -16.747520     -3.622164
  H      71.441007    -15.922442     -2.064137
  H      70.612832    -17.465745     -2.265774
24
Coordinates from ORCA-job 20 Relaxed Surface Scan Step 2
  C      69.631753    -15.692760     -3.164194
  H      69.935231    -14.708917     -3.532232
  H      69.157508    -16.194337     -4.007558
  C      68.615169    -15.559320     -2.026441
  H      68.271642    -16.561155     -1.762571
  H      69.137244    -15.196496     -1.136130
  C      67.389290    -14.644764     -2.260216
  H      66.504100    -15.123128     -1.832289
  H      67.531512    -13.707961     -1.716329
  C      67.038550    -14.275182     -3.696303
  H      67.904984    -13.783869     -4.157239
  O      66.749472    -15.460312     -4.386178
  C      66.782425    -15.420708     -5.771222
  H      66.642036    -16.436796     -6.135681
  H      65.989750    -14.796330     -6.193162
  H      67.744572    -15.049988     -6.142046
  C      65.861313    -13.304605     -3.741820
  H      65.613616    -13.019338     -4.764767
  H      64.976832    -13.761062     -3.293703
  H      66.094421    -12.390060     -3.194115
  C      70.874254    -16.473141     -2.745664
  H      71.572860    -16.579961     -3.578125
  H      71.403840    -15.973697     -1.930555
  H      70.613168    -17.477285     -2.402539
24
Coordinates from ORCA-job 20 Relaxed Surface Scan Step 3
  C      69.696232    -15.592246     -3.116189
  H      70.019088    -14.560068     -3.284360
  H      69.317298    -15.943874     -4.077169
  C      68.562001    -15.641640     -2.089290
  H      68.141858    -16.649208     -2.084363
  H      68.979668    -15.495588     -1.088172
  C      67.434914    -14.613130     -2.276810
  H      66.538233    -14.972880     -1.763300
  H      67.718730    -13.672545     -1.796232
  C      67.048295    -14.286657     -3.713484
  H      67.919513    -13.840693     -4.211670
  O      66.713770    -15.489781     -4.348172
  C      66.678981    -15.497721     -5.733643
  H      66.536787    -16.527636     -6.056156
  H      65.857380    -14.899033     -6.137091
  H      67.616381    -15.127031     -6.163400
  C      65.900598    -13.282574     -3.766950
  H      65.652308    -13.005276     -4.792051
  H      65.007114    -13.704603     -3.303173
  H      66.166994    -12.367428     -3.235520
  C      70.898766    -16.439481     -2.712306
  H      71.675825    -16.416019     -3.479143
  H      71.342261    -16.082591     -1.779551
  H      70.612547    -17.483470     -2.562885
24
Coordinates from ORCA-job 20 Relaxed Surface Scan Step 4
  C      69.800571    -15.479337     -3.026144
  H      70.170900    -14.453110     -2.928034
  H      69.535674    -15.605553     -4.078443
  C      68.551796    -15.666960     -2.164139
  H      68.110225    -16.641023     -2.383284
  H      68.847053    -15.696285     -1.110352
  C      67.482860    -14.582324     -2.317871
  H      66.602408    -14.872728     -1.737387
  H      67.847461    -13.644921     -1.886668
  C      67.036841    -14.294669     -3.747147
  H      67.891088    -13.891722     -4.306611
  O      66.648641    -15.511445     -4.322222
  C      66.562686    -15.570735     -5.703988
  H      66.388492    -16.608773     -5.981645
  H      65.738964    -14.970167     -6.100516
  H      67.490806    -15.236561     -6.181187
  C      65.911098    -13.265887     -3.785708
  H      65.624800    -13.016265     -4.808088
  H      65.029453    -13.650783     -3.269951
  H      66.221559    -12.340829     -3.296864
  C      70.918683    -16.456688     -2.676900
  H      71.785683    -16.316677     -3.325790
  H      71.252442    -16.326343     -1.644631
  H      70.585357    -17.491387     -2.787512
24
Coordinates from ORCA-job 20 Relaxed Surface Scan Step 5
  C      69.919768    -15.363943     -2.884233
  H      70.293990    -14.414486     -2.486652
  H      69.798106    -15.216168     -3.960676
  C      68.568317    -15.684889     -2.246206
  H      68.174617    -16.609809     -2.671530
  H      68.724142    -15.878060     -1.180138
  C      67.508080    -14.590313     -2.376068
  H      66.642613    -14.867278     -1.768260
  H      67.892739    -13.653004     -1.962459
  C      67.009934    -14.321026     -3.793214
  H      67.853017    -13.999138     -4.417031
  O      66.508725    -15.527569     -4.299099
  C      66.396101    -15.649080     -5.674704
  H      66.109195    -16.675740     -5.895154
  H      65.634495    -14.985747     -6.095059
  H      67.346845    -15.440517     -6.177934
  C      65.951146    -13.223134     -3.814160
  H      65.611246    -13.009400     -4.828253
  H      65.084650    -13.522986     -3.222023
  H      66.350341    -12.296133     -3.398930
  C      70.962238    -16.453059     -2.650563
  H      71.914351    -16.198821     -3.120780
  H      71.148347    -16.601618     -1.584154
  H      70.632539    -17.409256     -3.063799
24
Coordinates from ORCA-job 20 Relaxed Surface Scan Step 6
  C      69.991462    -15.264657     -2.703935
  H      70.308431    -14.474199     -2.015727
  H      69.990501    -14.816193     -3.701907
  C      68.579793    -15.716183     -2.328084
  H      68.278170    -16.555025     -2.958330
  H      68.602911    -16.098520     -1.303417
  C      67.511159    -14.623641     -2.421289
  H      66.651800    -14.904886     -1.808240
  H      67.898150    -13.688551     -2.005897
  C      66.984299    -14.360864     -3.829599
  H      67.825660    -14.160870     -4.504498
  O      66.336131    -15.529538     -4.254489
  C      66.226771    -15.738070     -5.619721
  H      65.754661    -16.707105     -5.771229
  H      65.612183    -14.979377     -6.113541
  H      67.208575    -15.751925     -6.106101
  C      66.039520    -13.164401     -3.865005
  H      65.643089    -12.995658     -4.866965
  H      65.196619    -13.329241     -3.191453
  H      66.556763    -12.254202     -3.556383
  C      71.011885    -16.398153     -2.668673
  H      72.012050    -16.040324     -2.921390
  H      71.063477    -16.852936     -1.676432
  H      70.751482    -17.186653     -3.378775
24
Coordinates from ORCA-job 20 Relaxed Surface Scan Step 7
  C      70.049638    -15.233113     -2.532617
  H      70.274969    -14.622249     -1.652154
  H      70.152383    -14.571108     -3.398823
  C      68.609057    -15.734415     -2.430986
  H      68.411354    -16.447746     -3.232920
  H      68.503676    -16.295656     -1.498750
  C      67.549857    -14.624339     -2.484868
  H      66.709812    -14.874025     -1.834214
  H      67.969018    -13.689112     -2.103559
  C      66.969777    -14.382836     -3.875888
  H      67.787757    -14.258269     -4.597094
  O      66.244267    -15.532307     -4.221208
  C      66.053354    -15.785148     -5.569866
  H      65.523367    -16.731753     -5.658819
  H      65.455159    -15.012866     -6.062713
  H      67.006570    -15.871163     -6.103548
  C      66.087119    -13.140541     -3.918006
  H      65.651202    -12.990512     -4.906425
  H      65.270930    -13.233376     -3.199223
  H      66.665067    -12.247876     -3.672408
  C      71.074166    -16.358249     -2.634716
  H      72.092034    -15.965833     -2.681586
  H      71.015573    -17.025350     -1.771172
  H      70.909435    -16.963332     -3.529516
24
Coordinates from ORCA-job 20 Relaxed Surface Scan Step 8
  C      70.117387    -15.249228     -2.423826
  H      70.211745    -14.742874     -1.457676
  H      70.352742    -14.497175     -3.184490
  C      68.674764    -15.720695     -2.604008
  H      68.591818    -16.276269     -3.540394
  H      68.439710    -16.441206     -1.816962
  C      67.639446    -14.580574     -2.595005
  H      66.863061    -14.776064     -1.852675
  H      68.116542    -13.642285     -2.300105
  C      66.940067    -14.368550     -3.932834
  H      67.700958    -14.235354     -4.713868
  O      66.213159    -15.535120     -4.207706
  C      65.913059    -15.803621     -5.533308
  H      65.401454    -16.763681     -5.570338
  H      65.255328    -15.050317     -5.977223
  H      66.818654    -15.870548     -6.146658
  C      66.033868    -13.142649     -3.918287
  H      65.527841    -13.005332     -4.874639
  H      65.271302    -13.246598     -3.144311
  H      66.610855    -12.238312     -3.717144
  C      71.137570    -16.380136     -2.500042
  H      72.154286    -16.008321     -2.357601
  H      70.949659    -17.134312     -1.731952
  H      71.100269    -16.881953     -3.470028
24
Coordinates from ORCA-job 20 Relaxed Surface Scan Step 9
  C      70.172453    -15.273118     -2.357566
  H      70.125613    -14.817965     -1.363046
  H      70.550765    -14.490115     -3.023351
  C      68.765251    -15.668476     -2.804429
  H      68.808115    -16.059876     -3.824443
  H      68.411588    -16.503238     -2.195173
  C      67.754148    -14.510691     -2.729929
  H      67.078357    -14.657327     -1.883148
  H      68.276863    -13.567598     -2.548874
  C      66.912331    -14.340417     -3.986925
  H      67.595532    -14.155472     -4.828407
  O      66.231013    -15.544704     -4.204715
  C      65.819319    -15.821643     -5.498252
  H      65.367684    -16.812007     -5.498460
  H      65.075234    -15.108311     -5.865196
  H      66.662720    -15.826006     -6.197748
  C      65.944835    -13.167281     -3.876979
  H      65.357810    -13.043196     -4.787826
  H      65.253156    -13.325748     -3.047724
  H      66.485982    -12.235377     -3.703842
  C      71.155859    -16.438050     -2.339352
  H      72.150411    -16.113472     -2.026692
  H      70.829875    -17.220217     -1.649592
  H      71.250627    -16.890869     -3.329411
24
Coordinates from ORCA-job 20 Relaxed Surface Scan Step 10
  C      70.192043    -15.290350     -2.293269
  H      70.015751    -14.914198     -1.280338
  H      70.676361    -14.467932     -2.830144
  C      68.854048    -15.598794     -2.965060
  H      69.026111    -15.841703     -4.018213
  H      68.418836    -16.501762     -2.531927
  C      67.848879    -14.446658     -2.845910
  H      67.258096    -14.572123     -1.933295
  H      68.380588    -13.495937     -2.746797
  C      66.900874    -14.321931     -4.029873
  H      67.508670    -14.107873     -4.921177
  O      66.259061    -15.555784     -4.193940
  C      65.754468    -15.852267     -5.449690
  H      65.354428    -16.864040     -5.416750
  H      64.947461    -15.176958     -5.749430
  H      66.535393    -15.813995     -6.217307
  C      65.894546    -13.191570     -3.844627
  H      65.241056    -13.087881     -4.711734
  H      65.269715    -13.383235     -2.970551
  H      66.407037    -12.238479     -3.702145
  C      71.139216    -16.483844     -2.239435
  H      72.089633    -16.216300     -1.773197
  H      70.706967    -17.306207     -1.664484
  H      71.356303    -16.861350     -3.241791
24
Coordinates from ORCA-job 20 Relaxed Surface Scan Step 11
  C      70.176312    -15.313792     -2.216738
  H      69.884962    -15.076654     -1.188469
  H      70.706361    -14.428755     -2.583689
  C      68.923913    -15.531046     -3.065242
  H      69.215363    -15.643501     -4.114902
  H      68.445281    -16.473444     -2.792369
  C      67.907503    -14.397329     -2.922360
  H      67.364466    -14.517969     -1.979678
  H      68.427382    -13.436293     -2.866234
  C      66.899527    -14.315299     -4.060325
  H      67.455004    -14.114630     -4.987652
  O      66.268693    -15.561595     -4.162917
  C      65.703422    -15.893752     -5.383413
  H      65.323203    -16.910867     -5.307732
  H      64.870078    -15.238378     -5.653863
  H      66.441792    -15.859934     -6.192210
  C      65.886501    -13.195285     -3.848997
  H      65.187700    -13.121596     -4.683207
  H      65.310628    -13.374932     -2.939462
  H      66.390883    -12.231887     -3.755311
  C      71.127015    -16.505945     -2.215880
  H      72.016216    -16.304518     -1.615058
  H      70.644221    -17.396491     -1.806659
  H      71.459117    -16.747284     -3.228714
24
Coordinates from ORCA-job 20 Relaxed Surface Scan Step 12
  C      70.137094    -15.353669     -2.141516
  H      69.738897    -15.294095     -1.123613
  H      70.662746    -14.408313     -2.311282
  C      68.979934    -15.471510     -3.132202
  H      69.378085    -15.459899     -4.152975
  H      68.486585    -16.437960     -3.013687
  C      67.942517    -14.362845     -2.971213
  H      67.423807    -14.489104     -2.015956
  H      68.442691    -13.390456     -2.933054
  C      66.901067    -14.316028     -4.081733
  H      67.423911    -14.158106     -5.035235
  O      66.257729    -15.560371     -4.114803
  C      65.653630    -15.936592     -5.303514
  H      65.266537    -16.945775     -5.174708
  H      64.818546    -15.284416     -5.576414
  H      66.367879    -15.943762     -6.134347
  C      65.902413    -13.181182     -3.881030
  H      65.173202    -13.139087     -4.691039
  H      65.360015    -13.317835     -2.943816
  H      66.414595    -12.217953     -3.847941
  C      71.132514    -16.505895     -2.229729
  H      71.948840    -16.381238     -1.515337
  H      70.649185    -17.462681     -2.018287
  H      71.573124    -16.572400     -3.227651
24
Coordinates from ORCA-job 20 Relaxed Surface Scan Step 13
  C      70.085319    -15.410133     -2.083081
  H      69.592488    -15.534986     -1.113768
  H      70.574619    -14.431240     -2.048367
  C      69.029321    -15.411978     -3.186708
  H      69.522314    -15.277610     -4.156354
  H      68.539489    -16.386801     -3.223663
  C      67.967570    -14.331006     -3.005262
  H      67.465909    -14.467408     -2.042690
  H      68.444999    -13.347038     -2.975204
  C      66.903025    -14.317566     -4.095628
  H      67.402738    -14.214564     -5.068432
  O      66.240529    -15.552224     -4.055050
  C      65.612473    -15.978762     -5.214003
  H      65.207520    -16.971609     -5.026454
  H      64.786520    -15.325159     -5.510322
  H      66.314502    -16.044512     -6.052660
  C      65.924377    -13.160769     -3.924257
  H      65.169588    -13.152927     -4.711556
  H      65.411205    -13.240563     -2.964258
  H      66.447789    -12.203696     -3.959145
  C      71.142812    -16.495984     -2.254448
  H      71.878487    -16.464579     -1.448193
  H      70.690963    -17.490805     -2.253154
  H      71.680986    -16.379255     -3.198422
24
Coordinates from ORCA-job 20 Relaxed Surface Scan Step 14
  C      70.025391    -15.480138     -2.047515
  H      69.448979    -15.781131     -1.166997
  H      70.456014    -14.501842     -1.809886
  C      69.076900    -15.347202     -3.236920
  H      69.654621    -15.095366     -4.133845
  H      68.604642    -16.312391     -3.430395
  C      67.990025    -14.294851     -3.032318
  H      67.504573    -14.443069     -2.063607
  H      68.442398    -13.299201     -3.006659
  C      66.906160    -14.316552     -4.104170
  H      67.386325    -14.272649     -5.090948
  O      66.228362    -15.538758     -3.988207
  C      65.582557    -16.019824     -5.115611
  H      65.159801    -16.991693     -4.867267
  H      64.767121    -15.368250     -5.443884
  H      66.276096    -16.148511     -5.954081
  C      65.945176    -13.140346     -3.971905
  H      65.166982    -13.169635     -4.735537
  H      65.460356    -13.158398     -2.994134
  H      66.476838    -12.193102     -4.077791
  C      71.150400    -16.483851     -2.279051
  H      71.799210    -16.561863     -1.404301
  H      70.753334    -17.480245     -2.487690
  H      71.773281    -16.192305     -3.128359
24
Coordinates from ORCA-job 20 Relaxed Surface Scan Step 15
  C      69.959912    -15.555574     -2.038566
  H      69.307224    -16.004026     -1.282642
  H      70.322945    -14.614435     -1.612576
  C      69.128820    -15.269316     -3.286998
  H      69.785813    -14.912365     -4.088599
  H      68.685284    -16.204091     -3.636141
  C      68.018084    -14.242987     -3.062318
  H      67.554639    -14.393815     -2.083561
  H      68.443590    -13.235654     -3.051040
  C      66.912197    -14.309459     -4.110083
  H      67.370410    -14.317407     -5.108142
  O      66.237130    -15.524334     -3.919948
  C      65.572973    -16.061988     -5.010491
  H      65.148157    -17.016123     -4.703763
  H      64.756863    -15.423980     -5.362819
  H      66.254006    -16.240611     -5.850107
  C      65.954439    -13.127607     -4.013637
  H      65.153140    -13.198678     -4.750106
  H      65.499848    -13.091430     -3.021916
  H      66.481600    -12.187914     -4.187598
  C      71.142231    -16.483761     -2.296529
  H      71.696850    -16.684862     -1.377766
  H      70.809659    -17.443344     -2.699910
  H      71.839726    -16.047412     -3.015822
24
Coordinates from ORCA-job 20 Relaxed Surface Scan Step 16
  C      69.885869    -15.620628     -2.058326
  H      69.151399    -16.157822     -1.449449
  H      70.193620    -14.747309     -1.473906
  C      69.196346    -15.165686     -3.342405
  H      69.936564    -14.723807     -4.018916
  H      68.796668    -16.047252     -3.847873
  C      68.063371    -14.158573     -3.111974
  H      67.635593    -14.285988     -2.113907
  H      68.458393    -13.139934     -3.146715
  C      66.924551    -14.291340     -4.117232
  H      67.348248    -14.326580     -5.129891
  O      66.291859    -15.516035     -3.857366
  C      65.603363    -16.112127     -4.901468
  H      65.215756    -17.064245     -4.543503
  H      64.758264    -15.509173     -5.247041
  H      66.258151    -16.305545     -5.758529
  C      65.938366    -13.132571     -4.030782
  H      65.112639    -13.254104     -4.732854
  H      65.519892    -13.068345     -3.024684
  H      66.432489    -12.187113     -4.261350
  C      71.093554    -16.518934     -2.302433
  H      71.540349    -16.847275     -1.361827
  H      70.813357    -17.412408     -2.865841
  H      71.866883    -15.998378     -2.872808
24
Coordinates from ORCA-job 20 Relaxed Surface Scan Step 17
  C      69.791011    -15.659378     -2.104461
  H      68.962446    -16.206211     -1.644268
  H      70.071282    -14.871374     -1.397786
  C      69.284701    -15.028560     -3.399947
  H      70.115604    -14.528819     -3.908269
  H      68.956768    -15.831062     -4.063981
  C      68.131650    -14.030695     -3.193234
  H      67.755398    -14.092795     -2.168613
  H      68.489600    -13.006819     -3.324491
  C      66.948619    -14.261529     -4.125993
  H      67.315997    -14.291398     -5.160680
  O      66.412639    -15.516532     -3.803316
  C      65.698459    -16.178417     -4.788978
  H      65.399022    -17.145813     -4.389805
  H      64.794581    -15.639134     -5.087763
  H      66.307363    -16.347096     -5.684216
  C      65.897234    -13.164500     -4.007156
  H      65.046945    -13.349634     -4.664641
  H      65.525913    -13.107325     -2.982346
  H      66.319038    -12.194833     -4.277419
  C      70.972689    -16.601011     -2.308130
  H      71.291979    -17.046438     -1.363729
  H      70.715292    -17.416572     -2.988473
  H      71.831312    -16.075227     -2.733385
24
Coordinates from ORCA-job 20 Relaxed Surface Scan Step 18
  C      69.669597    -15.680048     -2.168461
  H      68.756908    -16.192075     -1.855039
  H      69.924498    -14.987650     -1.359325
  C      69.376526    -14.879542     -3.436948
  H      70.282628    -14.342857     -3.731927
  H      69.163539    -15.577230     -4.250610
  C      68.207346    -13.887357     -3.288472
  H      67.887811    -13.841453     -2.244276
  H      68.526558    -12.877942     -3.557506
  C      66.985730    -14.236053     -4.129478
  H      67.286760    -14.254970     -5.185983
  O      66.570059    -15.519830     -3.750454
  C      65.834785    -16.251414     -4.669278
  H      65.646546    -17.233069     -4.238374
  H      64.869814    -15.789816     -4.898871
  H      66.382225    -16.385147     -5.608931
  C      65.863741    -13.217840     -3.961335
  H      64.997608    -13.468621     -4.574985
  H      65.540954    -13.180844     -2.919385
  H      66.199426    -12.221918     -4.255779
  C      70.796105    -16.693417     -2.337945
  H      70.978898    -17.241131     -1.411139
  H      70.555998    -17.425638     -3.112850
  H      71.731481    -16.205309     -2.623731
24
Coordinates from ORCA-job 20 Relaxed Surface Scan Step 19
  C      69.554002    -15.738973     -2.251468
  H      68.612345    -16.276122     -2.135683
  H      69.692236    -15.160803     -1.331814
  C      69.441912    -14.769774     -3.428939
  H      70.370171    -14.194588     -3.492055
  H      69.381633    -15.338384     -4.362112
  C      68.252598    -13.799644     -3.342078
  H      67.971153    -13.651134     -2.295984
  H      68.545181    -12.818741     -3.724377
  C      67.014981    -14.236562     -4.117704
  H      67.285828    -14.299502     -5.180687
  O      66.645611    -15.511381     -3.668690
  C      65.893007    -16.298106     -4.526171
  H      65.756885    -17.268832     -4.052986
  H      64.904033    -15.875262     -4.725800
  H      66.401082    -16.448698     -5.485097
  C      65.868929    -13.242043     -3.966579
  H      64.996804    -13.540710     -4.549471
  H      65.568221    -13.170014     -2.919875
  H      66.170725    -12.250809     -4.309398
  C      70.703062    -16.731069     -2.397232
  H      70.765002    -17.394485     -1.532055
  H      70.575838    -17.356742     -3.284318
  H      71.664302    -16.218798     -2.490507
24
Coordinates from ORCA-job 20 Relaxed Surface Scan Step 20
  C      69.489143    -15.868601     -2.391264
  H      68.616519    -16.498202     -2.557260
  H      69.387609    -15.471497     -1.376114
  C      69.478645    -14.701554     -3.379555
  H      70.365713    -14.088623     -3.190914
  H      69.596796    -15.084172     -4.399470
  C      68.248537    -13.786405     -3.319813
  H      67.962110    -13.615465     -2.277860
  H      68.520966    -12.809960     -3.728375
  C      67.019743    -14.262566     -4.088257
  H      67.317638    -14.446136     -5.129576
  O      66.578976    -15.468661     -3.527099
  C      65.812974    -16.302792     -4.325999
  H      65.621502    -17.215828     -3.765142
  H      64.849137    -15.860359     -4.593942
  H      66.336820    -16.568235     -5.250995
  C      65.910604    -13.214809     -4.075691
  H      65.037354    -13.547043     -4.638123
  H      65.595490    -13.012463     -3.050443
  H      66.254716    -12.280972     -4.523266
  C      70.760514    -16.707201     -2.478072
  H      70.745837    -17.523286     -1.752648
  H      70.876551    -17.150781     -3.470446
  H      71.651651    -16.105565     -2.280757
24
Coordinates from ORCA-job 20 Relaxed Surface Scan Step 21
  C      69.450017    -15.973676     -2.589183
  H      68.702015    -16.618972     -3.048516
  H      69.110973    -15.811051     -1.561908
  C      69.500920    -14.630639     -3.318098
  H      70.314373    -14.037929     -2.887032
  H      69.781187    -14.796685     -4.364711
  C      68.232988    -13.771948     -3.268377
  H      67.923829    -13.620540     -2.230049
  H      68.483436    -12.784417     -3.664335
  C      67.024708    -14.287502     -4.045345
  H      67.359029    -14.609209     -5.041149
  O      66.502493    -15.394695     -3.361950
  C      65.744497    -16.296667     -4.091076
  H      65.477263    -17.117813     -3.428373
  H      64.820126    -15.855901     -4.475743
  H      66.306813    -16.704977     -4.938417
  C      65.963788    -13.203465     -4.212873
  H      65.090638    -13.575788     -4.749705
  H      65.632812    -12.846693     -3.235745
  H      66.360127    -12.356378     -4.775111
  C      70.799775    -16.684738     -2.573380
  H      70.736638    -17.640803     -2.049570
  H      71.154103    -16.887371     -3.587586
  H      71.562993    -16.083317     -2.072848
24
Coordinates from ORCA-job 20 Relaxed Surface Scan Step 22
  C      69.416658    -16.008369     -2.785682
  H      68.787651    -16.561920     -3.485669
  H      68.908354    -16.062017     -1.819976
  C      69.517177    -14.550414     -3.232904
  H      70.243729    -14.037006     -2.594376
  H      69.938304    -14.520786     -4.244456
  C      68.221361    -13.733688     -3.211183
  H      67.883359    -13.585801     -2.181991
  H      68.448206    -12.740243     -3.606246
  C      67.043317    -14.310404     -3.994977
  H      67.415781    -14.758612     -4.926216
  O      66.463562    -15.319055     -3.210881
  C      65.723180    -16.290341     -3.864499
  H      65.401993    -17.018687     -3.122103
  H      64.831269    -15.884167     -4.350575
  H      66.318436    -16.810474     -4.623460
  C      66.017529    -13.236153     -4.342650
  H      65.156177    -13.655829     -4.863329
  H      65.659077    -12.750391     -3.433064
  H      66.457656    -12.476321     -4.990600
  C      70.779493    -16.687549     -2.690071
  H      70.680487    -17.732073     -2.387510
  H      71.301360    -16.669945     -3.650532
  H      71.421427    -16.190930     -1.958130
24
Coordinates from ORCA-job 20 Relaxed Surface Scan Step 23
  C      69.405133    -16.015962     -2.961645
  H      68.912749    -16.435454     -3.843622
  H      68.760496    -16.243857     -2.111293
  C      69.527856    -14.502283     -3.135596
  H      70.126782    -14.103421     -2.310147
  H      70.107750    -14.312119     -4.045351
  C      68.220545    -13.695992     -3.203638
  H      67.853515    -13.477608     -2.198494
  H      68.449294    -12.727798     -3.655298
  C      67.056221    -14.331704     -3.964259
  H      67.435755    -14.868712     -4.843036
  O      66.454714    -15.263183     -3.103703
  C      65.706706    -16.276115     -3.681230
  H      65.375896    -16.940102     -2.884646
  H      64.820207    -15.900923     -4.200927
  H      66.298731    -16.860667     -4.394144
  C      66.047619    -13.284303     -4.425038
  H      65.190482    -13.741158     -4.920725
  H      65.679558    -12.714275     -3.569789
  H      66.507129    -12.590770     -5.131299
  C      70.760118    -16.693917     -2.782169
  H      70.650992    -17.776291     -2.687408
  H      71.418654    -16.501073     -3.633120
  H      71.268641    -16.333487     -1.884502
24
Coordinates from ORCA-job 20 Relaxed Surface Scan Step 24
  C      69.426283    -16.021615     -3.119531
  H      69.094992    -16.319133     -4.118863
  H      68.669624    -16.377300     -2.420429
  C      69.524864    -14.496306     -3.054551
  H      69.948598    -14.224902     -2.083139
  H      70.263600    -14.181052     -3.797862
  C      68.232044    -13.672031     -3.259605
  H      67.854737    -13.322728     -2.297043
  H      68.490924    -12.770773     -3.819306
  C      67.050728    -14.343808     -3.958653
  H      67.401254    -14.923141     -4.820803
  O      66.463242    -15.225391     -3.038097
  C      65.696794    -16.261221     -3.547487
  H      65.372459    -16.877118     -2.710576
  H      64.805521    -15.906062     -4.073013
  H      66.272419    -16.889436     -4.236157
  C      66.038027    -13.311568     -4.445765
  H      65.166538    -13.786454     -4.897500
  H      65.693727    -12.697607     -3.611391
  H      66.483623    -12.657009     -5.196683
  C      70.761159    -16.699251     -2.824311
  H      70.677073    -17.785485     -2.898076
  H      71.535861    -16.378864     -3.525709
  H      71.111451    -16.462921     -1.816531
