20
Coordinates from ORCA-job 21 Relaxed Surface Scan Step 1
  C      -3.836585     -1.439453     -0.574248
  H      -3.304746     -1.997038      0.200666
  H      -4.857598     -1.276488     -0.220853
  H      -3.889964     -2.074199     -1.461021
  C      -3.138838     -0.117552     -0.881394
  H      -3.676846      0.393593     -1.682427
  H      -2.142274     -0.326199     -1.278359
  C      -3.023243      0.787454      0.345987
  H      -4.016215      0.910574      0.793949
  H      -2.414685      0.266776      1.092873
  C      -2.446469      2.193088      0.122048
  H      -2.149018      2.580558      1.101566
  H      -3.237852      2.857019     -0.241178
  C      -1.255263      2.305259     -0.829655
  H      -1.587132      2.096499     -1.850757
  H      -0.505116      1.547137     -0.582875
  C      -0.604981      3.685504     -0.800024
  H      -0.211387      3.917782      0.192462
  H       0.223348      3.748253     -1.508571
  H      -1.323559      4.466576     -1.060676
20
Coordinates from ORCA-job 21 Relaxed Surface Scan Step 2
  C      -3.815441     -1.446151     -0.570134
  H      -3.391567     -1.967430      0.291731
  H      -4.869490     -1.255682     -0.354121
  H      -3.769651     -2.125836     -1.423369
  C      -3.064878     -0.148585     -0.856531
  H      -3.492998      0.318318     -1.744917
  H      -2.030433     -0.387269     -1.114603
  C      -3.091052      0.813565      0.333300
  H      -4.133513      0.990297      0.619108
  H      -2.630939      0.295722      1.180236
  C      -2.418081      2.194005      0.166773
  H      -1.997671      2.469768      1.138329
  H      -3.183133      2.944381     -0.053519
  C      -1.319905      2.330785     -0.889180
  H      -1.761496      2.230573     -1.884896
  H      -0.587429      1.525262     -0.786124
  C      -0.599844      3.674065     -0.809320
  H      -0.096841      3.798390      0.152686
  H       0.155226      3.765230     -1.592681
  H      -1.299286      4.505734     -0.925253
20
Coordinates from ORCA-job 21 Relaxed Surface Scan Step 3
  C      -3.815505     -1.427932     -0.600295
  H      -3.579666     -1.931775      0.340265
  H      -4.879092     -1.177786     -0.582297
  H      -3.657595     -2.144828     -1.408491
  C      -2.956102     -0.181696     -0.791884
  H      -3.195295      0.269404     -1.758039
  H      -1.906210     -0.479561     -0.847072
  C      -3.154537      0.840242      0.330654
  H      -4.218859      1.086538      0.374518
  H      -2.935411      0.341407      1.278570
  C      -2.339076      2.159331      0.259619
  H      -1.756521      2.262340      1.179067
  H      -3.033396      3.003899      0.262943
  C      -1.384092      2.343791     -0.922696
  H      -1.935576      2.282621     -1.864064
  H      -0.652643      1.532266     -0.944918
  C      -0.643760      3.676977     -0.867962
  H      -0.042572      3.760173      0.040754
  H       0.028040      3.791051     -1.721038
  H      -1.340554      4.518680     -0.880119
20
Coordinates from ORCA-job 21 Relaxed Surface Scan Step 4
  C      -3.832991     -1.395927     -0.634353
  H      -3.846680     -1.860085      0.354781
  H      -4.850785     -1.066608     -0.857877
  H      -3.568554     -2.168584     -1.359044
  C      -2.850894     -0.229892     -0.685625
  H      -2.834867      0.185851     -1.698828
  H      -1.840484     -0.601854     -0.489919
  C      -3.197587      0.884085      0.303428
  H      -4.205403      1.242625      0.072886
  H      -3.272974      0.458918      1.308517
  C      -2.218348      2.076331      0.344446
  H      -1.492545      1.930412      1.150289
  H      -2.779412      2.972219      0.625352
  C      -1.442669      2.357696     -0.947025
  H      -2.107336      2.305121     -1.813380
  H      -0.704893      1.566854     -1.104350
  C      -0.727463      3.704651     -0.927635
  H      -0.034555      3.772230     -0.085167
  H      -0.152184      3.861197     -1.842325
  H      -1.437798      4.529900     -0.836658
20
Coordinates from ORCA-job 21 Relaxed Surface Scan Step 5
  C      -3.838434     -1.411884     -0.607335
  H      -4.008866     -1.790997      0.403169
  H      -4.798976     -1.063527     -0.994981
  H      -3.516850     -2.251757     -1.226387
  C      -2.802655     -0.292154     -0.611506
  H      -2.625126      0.031373     -1.642138
  H      -1.846966     -0.681228     -0.244610
  C      -3.219038      0.914614      0.229071
  H      -4.147770      1.327668     -0.179221
  H      -3.470184      0.580278      1.240545
  C      -2.168942      2.027162      0.331398
  H      -1.387437      1.729026      1.038608
  H      -2.645306      2.906962      0.774689
  C      -1.509235      2.424092     -0.992334
  H      -2.265812      2.495612     -1.780456
  H      -0.830646      1.629552     -1.312645
  C      -0.731002      3.732932     -0.905178
  H       0.045957      3.679355     -0.138433
  H      -0.244071      3.969113     -1.853425
  H      -1.387063      4.568951     -0.651317
20
Coordinates from ORCA-job 21 Relaxed Surface Scan Step 6
  C      -3.828729     -1.449761     -0.565354
  H      -4.103560     -1.745152      0.450198
  H      -4.739589     -1.118617     -1.070277
  H      -3.468606     -2.340785     -1.083646
  C      -2.771979     -0.349224     -0.555874
  H      -2.489336     -0.118483     -1.586390
  H      -1.864971     -0.721946     -0.068211
  C      -3.237209      0.924203      0.150670
  H      -4.109931      1.328041     -0.374437
  H      -3.589663      0.662095      1.153257
  C      -2.176219      2.019805      0.283821
  H      -1.362978      1.660360      0.924136
  H      -2.622557      2.865540      0.816278
  C      -1.588837      2.522340     -1.036027
  H      -2.402649      2.770098     -1.725547
  H      -1.020992      1.722469     -1.517514
  C      -0.682022      3.737229     -0.863685
  H       0.153212      3.515254     -0.194791
  H      -0.263570      4.058484     -1.819670
  H      -1.228238      4.583189     -0.439425
20
Coordinates from ORCA-job 21 Relaxed Surface Scan Step 7
  C      -3.817321     -1.473286     -0.551962
  H      -4.225133     -1.694103      0.437476
  H      -4.647826     -1.156498     -1.187611
  H      -3.422783     -2.404665     -0.963059
  C      -2.736435     -0.399024     -0.478529
  H      -2.323068     -0.242669     -1.477848
  H      -1.908100     -0.761021      0.139039
  C      -3.244496      0.924970      0.093738
  H      -4.059623      1.301365     -0.534334
  H      -3.687919      0.729273      1.074980
  C      -2.182761      2.017179      0.250030
  H      -1.335192      1.618379      0.818295
  H      -2.600526      2.822906      0.861641
  C      -1.674588      2.620309     -1.059724
  H      -2.525118      3.021880     -1.620230
  H      -1.237616      1.839738     -1.687847
  C      -0.643445      3.725100     -0.850449
  H       0.236040      3.350600     -0.320940
  H      -0.305294      4.137158     -1.803322
  H      -1.057219      4.547550     -0.261833
20
Coordinates from ORCA-job 21 Relaxed Surface Scan Step 8
  C      -3.804066     -1.481982     -0.570846
  H      -4.368325     -1.638306      0.351825
  H      -4.513418     -1.173607     -1.342712
  H      -3.386551     -2.445203     -0.870824
  C      -2.707417     -0.439189     -0.378609
  H      -2.141994     -0.340043     -1.308467
  H      -1.994499     -0.798442      0.370152
  C      -3.242890      0.924107      0.061550
  H      -3.989244      1.270107     -0.662188
  H      -3.777331      0.792220      1.006998
  C      -2.172361      2.008027      0.237321
  H      -1.288386      1.572019      0.714897
  H      -2.543032      2.768792      0.930714
  C      -1.757622      2.704487     -1.058928
  H      -2.630584      3.219293     -1.473416
  H      -1.458229      1.961829     -1.804059
  C      -0.626027      3.709510     -0.869114
  H       0.278534      3.222294     -0.497056
  H      -0.373088      4.203921     -1.809150
  H      -0.901893      4.485307     -0.150576
20
Coordinates from ORCA-job 21 Relaxed Surface Scan Step 9
  C      -3.810195     -1.497672     -0.567547
  H      -4.484216     -1.584588      0.288236
  H      -4.411827     -1.208986     -1.432851
  H      -3.398310     -2.489077     -0.766495
  C      -2.704181     -0.482497     -0.298975
  H      -2.030992     -0.447583     -1.159506
  H      -2.095135     -0.825265      0.543269
  C      -3.230697      0.919635      0.009871
  H      -3.894275      1.239720     -0.801047
  H      -3.855367      0.860781      0.905614
  C      -2.134374      1.978638      0.211515
  H      -1.223364      1.497776      0.582554
  H      -2.440216      2.681738      0.991387
  C      -1.803860      2.776290     -1.049889
  H      -2.691838      3.346875     -1.341679
  H      -1.594576      2.090438     -1.876854
  C      -0.627856      3.731207     -0.874887
  H       0.288766      3.190138     -0.627688
  H      -0.440413      4.300980     -1.787206
  H      -0.815497      4.446592     -0.070308
20
Coordinates from ORCA-job 21 Relaxed Surface Scan Step 10
  C      -3.842818     -1.522860     -0.526805
  H      -4.577475     -1.528534      0.282192
  H      -4.370986     -1.271238     -1.449752
  H      -3.458337     -2.539365     -0.631828
  C      -2.718358     -0.532292     -0.245032
  H      -1.985117     -0.576089     -1.055527
  H      -2.183468     -0.838472      0.659433
  C      -3.204589      0.906982     -0.072454
  H      -3.781849      1.193878     -0.957830
  H      -3.908235      0.936433      0.764026
  C      -2.075076      1.931049      0.154121
  H      -1.147993      1.406938      0.407481
  H      -2.306983      2.557686      1.019712
  C      -1.816761      2.840468     -1.046794
  H      -2.723284      3.420064     -1.249786
  H      -1.641652      2.227013     -1.936616
  C      -0.642693      3.792880     -0.848606
  H       0.289095      3.245286     -0.687249
  H      -0.502309      4.436032     -1.719671
  H      -0.799535      4.439283      0.018496
20
Coordinates from ORCA-job 21 Relaxed Surface Scan Step 11
  C      -3.886472     -1.546537     -0.460986
  H      -4.651242     -1.465597      0.315373
  H      -4.368782     -1.346059     -1.420872
  H      -3.537656     -2.581063     -0.475392
  C      -2.736557     -0.578072     -0.206934
  H      -1.972382     -0.709562     -0.980213
  H      -2.251893     -0.830208      0.741581
  C      -3.168581      0.887847     -0.176609
  H      -3.660009      1.127324     -1.124562
  H      -3.937361      1.013634      0.590966
  C      -2.010031      1.875649      0.071461
  H      -1.075828      1.321025      0.203297
  H      -2.168807      2.408361      1.013281
  C      -1.817290      2.898773     -1.047821
  H      -2.744230      3.465146     -1.182045
  H      -1.649213      2.369493     -1.991435
  C      -0.665176      3.865562     -0.797324
  H       0.284248      3.333555     -0.698493
  H      -0.561042      4.579158     -1.617114
  H      -0.820119      4.436711      0.121354
20
Coordinates from ORCA-job 21 Relaxed Surface Scan Step 12
  C      -3.928845     -1.559538     -0.386741
  H      -4.712211     -1.389886      0.355975
  H      -4.375420     -1.420600     -1.374434
  H      -3.618218     -2.603277     -0.307767
  C      -2.751753     -0.613943     -0.174449
  H      -1.968674     -0.836122     -0.908817
  H      -2.307837     -0.800313      0.808710
  C      -3.124955      0.863421     -0.291274
  H      -3.530469      1.040604     -1.291116
  H      -3.946070      1.085037      0.396944
  C      -1.948541      1.820883     -0.024715
  H      -1.012117      1.255180     -0.010972
  H      -2.041768      2.249704      0.977497
  C      -1.819817      2.950540     -1.046759
  H      -2.765684      3.496241     -1.115919
  H      -1.656931      2.513444     -2.037234
  C      -0.692229      3.928267     -0.734285
  H       0.273954      3.419129     -0.695074
  H      -0.623753      4.710216     -1.493213
  H      -0.847084      4.416154      0.231156
20
Coordinates from ORCA-job 21 Relaxed Surface Scan Step 13
  C      -3.963013     -1.559660     -0.321940
  H      -4.769805     -1.302663      0.368737
  H      -4.363362     -1.491387     -1.336516
  H      -3.692788     -2.602158     -0.142228
  C      -2.762841     -0.637141     -0.138364
  H      -1.958004     -0.948134     -0.815398
  H      -2.368741     -0.749994      0.876756
  C      -3.075871      0.834714     -0.404175
  H      -3.394006      0.938434     -1.444786
  H      -3.938906      1.142207      0.194860
  C      -1.894432      1.772943     -0.120487
  H      -0.956542      1.217730     -0.215509
  H      -1.932816      2.098944      0.923813
  C      -1.833367      2.995025     -1.036591
  H      -2.793358      3.519695     -1.025710
  H      -1.695931      2.654163     -2.067762
  C      -0.718640      3.970918     -0.675212
  H       0.259768      3.485477     -0.711960
  H      -0.694030      4.817727     -1.363967
  H      -0.851738      4.368302      0.333950
20
Coordinates from ORCA-job 21 Relaxed Surface Scan Step 14
  C      -3.986369     -1.552126     -0.283853
  H      -4.833089     -1.217311      0.320241
  H      -4.309599     -1.562203     -1.327734
  H      -3.761498     -2.581355      0.002870
  C      -2.775162     -0.645959     -0.089349
  H      -1.933667     -1.035560     -0.674142
  H      -2.460342     -0.679857      0.958597
  C      -3.024897      0.804101     -0.500688
  H      -3.257810      0.829087     -1.568915
  H      -3.919726      1.182468      0.004673
  C      -1.846094      1.733935     -0.204839
  H      -0.907883      1.206443     -0.402311
  H      -1.831911      1.966301      0.865285
  C      -1.860818      3.031950     -1.011230
  H      -2.825128      3.534686     -0.890800
  H      -1.785647      2.787364     -2.075491
  C      -0.738628      3.993873     -0.634906
  H       0.242012      3.532999     -0.776950
  H      -0.770578      4.898671     -1.245134
  H      -0.811589      4.297635      0.412188
20
Coordinates from ORCA-job 21 Relaxed Surface Scan Step 15
  C      -3.995741     -1.547342     -0.279435
  H      -4.899444     -1.154735      0.193009
  H      -4.198332     -1.644659     -1.348851
  H      -3.823618     -2.549863      0.117295
  C      -2.798066     -0.637843     -0.024393
  H      -1.904192     -1.082829     -0.474032
  H      -2.603528     -0.587720      1.051639
  C      -2.979316      0.776282     -0.572927
  H      -3.133699      0.720937     -1.655348
  H      -3.896401      1.211779     -0.161655
  C      -1.803687      1.704098     -0.273015
  H      -0.870659      1.215369     -0.572321
  H      -1.729399      1.851983      0.809792
  C      -1.898744      3.062722     -0.964849
  H      -2.846791      3.541894     -0.701555
  H      -1.930922      2.910938     -2.048342
  C      -0.746275      4.001152     -0.621548
  H       0.215777      3.566596     -0.903979
  H      -0.843815      4.955801     -1.142319
  H      -0.711570      4.210581      0.450346
20
Coordinates from ORCA-job 21 Relaxed Surface Scan Step 16
  C      -3.991595     -1.550009     -0.293409
  H      -4.951280     -1.123406      0.008530
  H      -4.040847     -1.745306     -1.367402
  H      -3.882620     -2.511051      0.213134
  C      -2.838082     -0.611439      0.045713
  H      -1.891765     -1.083428     -0.234184
  H      -2.793260     -0.470386      1.130196
  C      -2.943382      0.753446     -0.631895
  H      -3.027216      0.615822     -1.715893
  H      -3.873671      1.237933     -0.316143
  C      -1.765043      1.678133     -0.333735
  H      -0.847564      1.234828     -0.736920
  H      -1.619431      1.742895      0.749998
  C      -1.935439      3.086516     -0.898910
  H      -2.840335      3.533596     -0.474831
  H      -2.105208      3.025541     -1.978567
  C      -0.745094      4.000273     -0.625611
  H       0.170663      3.601178     -1.068522
  H      -0.906680      4.996873     -1.041239
  H      -0.570572      4.113132      0.447202
20
Coordinates from ORCA-job 21 Relaxed Surface Scan Step 17
  C      -3.983714     -1.553881     -0.295963
  H      -4.976489     -1.112788     -0.176973
  H      -3.880956     -1.857350     -1.340617
  H      -3.947356     -2.457022      0.316485
  C      -2.890442     -0.568847      0.103865
  H      -1.912369     -1.046571      0.004365
  H      -2.992959     -0.325997      1.166244
  C      -2.910941      0.729447     -0.701133
  H      -2.931011      0.500289     -1.773280
  H      -3.845864      1.258536     -0.488187
  C      -1.724130      1.649700     -0.407880
  H      -0.832898      1.262657     -0.916010
  H      -1.498246      1.625769      0.663518
  C      -1.960594      3.099160     -0.825389
  H      -2.805290      3.491925     -0.249229
  H      -2.265741      3.132021     -1.876226
  C      -0.746719      3.999579     -0.621569
  H       0.104497      3.657466     -1.215217
  H      -0.962605      5.028858     -0.914941
  H      -0.434596      4.012189      0.425651
20
Coordinates from ORCA-job 21 Relaxed Surface Scan Step 18
  C      -4.005439     -1.528977     -0.248833
  H      -4.993011     -1.061601     -0.273807
  H      -3.817922     -1.956110     -1.236953
  H      -4.047492     -2.353232      0.465960
  C      -2.927129     -0.520453      0.131347
  H      -1.955489     -1.018912      0.174182
  H      -3.114058     -0.155190      1.146289
  C      -2.847489      0.678583     -0.812769
  H      -2.788125      0.327606     -1.849526
  H      -3.785946      1.237526     -0.739493
  C      -1.663909      1.614310     -0.522395
  H      -0.805281      1.319699     -1.136430
  H      -1.345831      1.493816      0.518218
  C      -1.977477      3.089651     -0.761638
  H      -2.775866      3.385955     -0.072365
  H      -2.379755      3.219837     -1.771437
  C      -0.776499      4.009467     -0.570733
  H       0.024288      3.766746     -1.273502
  H      -1.048843      5.055112     -0.727326
  H      -0.367149      3.921308      0.438725
20
Coordinates from ORCA-job 21 Relaxed Surface Scan Step 19
  C      -4.056582     -1.448411     -0.160766
  H      -5.014282     -0.932949     -0.267366
  H      -3.872140     -1.996224     -1.088135
  H      -4.162761     -2.181555      0.641320
  C      -2.929448     -0.464873      0.133804
  H      -1.992610     -1.013685      0.268110
  H      -3.122712      0.034186      1.088974
  C      -2.744375      0.595368     -0.951506
  H      -2.587535      0.097145     -1.913193
  H      -3.681426      1.150911     -1.056824
  C      -1.587090      1.576687     -0.675536
  H      -0.781274      1.413988     -1.397465
  H      -1.151063      1.365647      0.305847
  C      -1.999902      3.047622     -0.716021
  H      -2.780623      3.215817      0.033278
  H      -2.457198      3.268916     -1.685608
  C      -0.844883      4.011717     -0.468637
  H      -0.064275      3.897041     -1.224704
  H      -1.182253      5.049772     -0.495899
  H      -0.385991      3.838023      0.507839
20
Coordinates from ORCA-job 21 Relaxed Surface Scan Step 20
  C      -4.090611     -1.342218     -0.079126
  H      -5.020227     -0.797901     -0.262541
  H      -3.917126     -1.996720     -0.936917
  H      -4.245607     -1.977125      0.795513
  C      -2.921929     -0.385649      0.131021
  H      -2.017202     -0.962313      0.353695
  H      -3.112661      0.233345      1.013757
  C      -2.647672      0.517036     -1.072037
  H      -2.405742     -0.112878     -1.931094
  H      -3.570012      1.039288     -1.345186
  C      -1.524384      1.545118     -0.834768
  H      -0.804182      1.511331     -1.656449
  H      -0.957601      1.266765      0.059311
  C      -2.025366      2.981835     -0.680912
  H      -2.793195      3.020659      0.098166
  H      -2.525922      3.283637     -1.606331
  C      -0.920565      3.980975     -0.355409
  H      -0.154302      3.991438     -1.134499
  H      -1.316268      4.994726     -0.266794
  H      -0.427849      3.733791      0.588111
20
Coordinates from ORCA-job 21 Relaxed Surface Scan Step 21
  C      -4.099294     -1.270414     -0.044143
  H      -5.013525     -0.750609     -0.340827
  H      -3.877368     -2.012873     -0.814722
  H      -4.309846     -1.808027      0.882554
  C      -2.940753     -0.294549      0.132578
  H      -2.054366     -0.842167      0.472624
  H      -3.183971      0.415497      0.929075
  C      -2.582681      0.464856     -1.145574
  H      -2.264706     -0.259268     -1.898881
  H      -3.481971      0.936620     -1.555214
  C      -1.493165      1.529570     -0.948070
  H      -0.872404      1.599480     -1.845510
  H      -0.815550      1.209870     -0.149495
  C      -2.042376      2.920130     -0.624421
  H      -2.752228      2.856734      0.205754
  H      -2.621987      3.276433     -1.481785
  C      -0.959607      3.940176     -0.289146
  H      -0.251156      4.050620     -1.113888
  H      -1.389512      4.923499     -0.088247
  H      -0.391957      3.639566      0.594850
20
Coordinates from ORCA-job 21 Relaxed Surface Scan Step 22
  C      -4.095477     -1.268508     -0.065282
  H      -4.994809     -0.831286     -0.505875
  H      -3.754698     -2.063954     -0.732620
  H      -4.381895     -1.730831      0.881452
  C      -3.010876     -0.215281      0.138320
  H      -2.143504     -0.678698      0.620750
  H      -3.375885      0.544637      0.834719
  C      -2.555170      0.443349     -1.164274
  H      -2.168338     -0.335966     -1.826504
  H      -3.421043      0.868881     -1.683104
  C      -1.488129      1.529230     -0.985566
  H      -0.958946      1.673297     -1.932177
  H      -0.731793      1.178162     -0.275176
  C      -2.033865      2.881688     -0.525040
  H      -2.612504      2.760644      0.394643
  H      -2.739521      3.251847     -1.275479
  C      -0.945504      3.926375     -0.299074
  H      -0.366740      4.098384     -1.209920
  H      -1.371946      4.883519      0.007747
  H      -0.247782      3.609650      0.479971
20
Coordinates from ORCA-job 21 Relaxed Surface Scan Step 23
  C      -4.086890     -1.281879     -0.093225
  H      -4.946092     -0.952679     -0.682771
  H      -3.618572     -2.111701     -0.628123
  H      -4.465308     -1.670113      0.854504
  C      -3.100256     -0.139841      0.130869
  H      -2.271575     -0.494160      0.752545
  H      -3.594349      0.648437      0.704407
  C      -2.538251      0.431492     -1.171351
  H      -2.094446     -0.387576     -1.745698
  H      -3.361759      0.814348     -1.784340
  C      -1.484241      1.528305     -0.999870
  H      -1.040160      1.737025     -1.978214
  H      -0.667273      1.149662     -0.375587
  C      -2.001763      2.841829     -0.413003
  H      -2.412503      2.671138      0.585305
  H      -2.834162      3.203625     -1.025446
  C      -0.929520      3.923979     -0.329430
  H      -0.521619      4.155408     -1.316407
  H      -1.331887      4.849164      0.087960
  H      -0.097795      3.608676      0.305387
20
Coordinates from ORCA-job 21 Relaxed Surface Scan Step 24
  C      -4.086446     -1.274551     -0.107009
  H      -4.881105     -1.050477     -0.822949
  H      -3.526128     -2.129329     -0.493466
  H      -4.560171     -1.583637      0.826891
  C      -3.178470     -0.066945      0.105913
  H      -2.414473     -0.315464      0.848421
  H      -3.766008      0.746206      0.539459
  C      -2.506738      0.409061     -1.182380
  H      -2.010358     -0.443765     -1.658181
  H      -3.281802      0.737402     -1.883729
  C      -1.470048      1.524251     -1.020691
  H      -1.116771      1.799800     -2.019511
  H      -0.596495      1.132274     -0.488143
  C      -1.957144      2.786424     -0.309044
  H      -2.186556      2.555760      0.734613
  H      -2.895091      3.123113     -0.763133
  C      -0.939870      3.922956     -0.349586
  H      -0.718000      4.220874     -1.377187
  H      -1.308984      4.804285      0.178727
  H       0.002234      3.626903      0.118499
