24
Coordinates from ORCA-job 23 Relaxed Surface Scan Step 1
  C      -1.685103      1.962938     -0.090712
  O      -0.379065      1.577521      0.183357
  H      -2.409301      1.169706      0.098851
  H      -1.796666      2.266174     -1.135682
  H      -1.937524      2.819068      0.535574
  C      -0.057670      0.213384      0.311061
  H      -0.390837     -0.109152      1.307394
  C      -0.722310     -0.697611     -0.750080
  H      -1.115833     -0.081374     -1.559674
  H       0.034653     -1.326712     -1.216873
  C      -1.818123     -1.614157     -0.207633
  H      -1.418760     -2.292055      0.550345
  H      -2.634015     -1.056250      0.254981
  H      -2.245478     -2.226365     -1.004150
  C       1.478369      0.141234      0.299215
  H       1.802098      0.880698      1.031897
  C       1.997199     -1.219804      0.767027
  H       1.730593     -2.026349      0.080406
  H       3.086166     -1.205794      0.840527
  H       1.605104     -1.478342      1.753300
  C       2.084354      0.559329     -1.041967
  H       1.699753      1.530300     -1.351437
  H       3.170413      0.637336     -0.958689
  H       1.872298     -0.161851     -1.834523
24
Coordinates from ORCA-job 23 Relaxed Surface Scan Step 2
  C      -1.732717      1.835577      0.086603
  O      -0.397461      1.503399      0.252614
  H      -2.393319      1.238296      0.719212
  H      -2.064575      1.712185     -0.948537
  H      -1.848979      2.884497      0.354971
  C      -0.025704      0.149467      0.331226
  H      -0.331762     -0.226199      1.319994
  C      -0.654271     -0.749510     -0.753385
  H      -0.758572     -0.171925     -1.674434
  H       0.057174     -1.542155     -0.985273
  C      -1.978797     -1.427298     -0.399592
  H      -1.883101     -2.016292      0.515691
  H      -2.795926     -0.722249     -0.253368
  H      -2.278525     -2.109774     -1.197430
  C       1.513101      0.150722      0.284416
  H       1.806972      0.949261      0.964217
  C       2.122214     -1.150135      0.810035
  H       1.901403     -2.004247      0.165780
  H       3.208971     -1.063606      0.867795
  H       1.757757     -1.385449      1.812560
  C       2.068436      0.526951     -1.091398
  H       1.615353      1.450344     -1.451321
  H       3.147686      0.683819     -1.032580
  H       1.894960     -0.253807     -1.835280
24
Coordinates from ORCA-job 23 Relaxed Surface Scan Step 3
  C      -1.741789      1.848933      0.139925
  O      -0.400672      1.508656      0.077445
  H      -2.244519      1.381056      0.992374
  H      -2.285102      1.572438     -0.768261
  H      -1.804409      2.929988      0.253913
  C      -0.035030      0.164596      0.249077
  H      -0.378822     -0.160179      1.242422
  C      -0.648479     -0.770103     -0.812907
  H      -0.784088     -0.198417     -1.733909
  H       0.071736     -1.552718     -1.053179
  C      -1.955861     -1.456856     -0.416916
  H      -1.820207     -2.065329      0.480442
  H      -2.761141     -0.750651     -0.215251
  H      -2.295638     -2.121102     -1.214109
  C       1.502559      0.160189      0.271189
  H       1.765287      0.959982      0.965881
  C       2.078972     -1.142565      0.828275
  H       1.888532     -1.995653      0.173224
  H       3.161531     -1.059730      0.942226
  H       1.662349     -1.376685      1.810706
  C       2.119623      0.524974     -1.080847
  H       1.697740      1.455126     -1.459734
  H       3.198755      0.660279     -0.980052
  H       1.958990     -0.254356     -1.829417
24
Coordinates from ORCA-job 23 Relaxed Surface Scan Step 4
  C      -1.721801      1.895267      0.194891
  O      -0.426764      1.498416     -0.092490
  H      -2.020803      1.599548      1.206983
  H      -2.451880      1.492439     -0.512725
  H      -1.756863      2.981766      0.132807
  C      -0.057535      0.170627      0.168825
  H      -0.435133     -0.103225      1.162772
  C      -0.645257     -0.809083     -0.867337
  H      -0.812808     -0.253827     -1.792791
  H       0.092460     -1.575469     -1.107211
  C      -1.929556     -1.517005     -0.435434
  H      -1.760745     -2.122603      0.458323
  H      -2.735813     -0.818349     -0.209566
  H      -2.285577     -2.185812     -1.221644
  C       1.477230      0.168117      0.259565
  H       1.707531      0.960992      0.976395
  C       2.027598     -1.138895      0.834044
  H       1.883031     -1.984089      0.157788
  H       3.100652     -1.050695      1.014408
  H       1.554374     -1.388873      1.786670
  C       2.152701      0.538992     -1.061914
  H       1.760146      1.479508     -1.446015
  H       3.229555      0.653698     -0.919317
  H       2.005572     -0.229576     -1.824508
24
Coordinates from ORCA-job 23 Relaxed Surface Scan Step 5
  C      -1.691300      1.790676      0.514670
  O      -0.605794      1.295775     -0.194082
  H      -1.569205      1.660387      1.594249
  H      -2.633292      1.318257      0.226603
  H      -1.768024      2.856351      0.304041
  C      -0.080147      0.038816      0.153602
  H      -0.417584     -0.220032      1.167651
  C      -0.563993     -1.051058     -0.804701
  H      -0.254822     -0.789691     -1.817837
  H      -0.051677     -1.982119     -0.551320
  C      -2.069443     -1.301672     -0.798757
  H      -2.440347     -1.516612      0.206884
  H      -2.618538     -0.443869     -1.186281
  H      -2.315731     -2.158132     -1.429269
  C       1.451424      0.200487      0.203895
  H       1.601283      1.093163      0.814451
  C       2.153166     -0.967187      0.899666
  H       2.091567     -1.889934      0.318928
  H       3.212767     -0.744341      1.039800
  H       1.725710     -1.163308      1.885947
  C       2.073290      0.499171     -1.162479
  H       1.537984      1.304290     -1.665075
  H       3.113819      0.809040     -1.042971
  H       2.069202     -0.376588     -1.815098
24
Coordinates from ORCA-job 23 Relaxed Surface Scan Step 6
  C      -1.540745      1.854009      0.598285
  O      -0.732545      1.199776     -0.318900
  H      -1.029531      2.033985      1.550025
  H      -2.456903      1.292726      0.808977
  H      -1.819226      2.816655      0.172582
  C      -0.143023     -0.011351      0.085874
  H      -0.518943     -0.275352      1.083410
  C      -0.565628     -1.114178     -0.882195
  H      -0.250597     -0.837189     -1.889531
  H      -0.036648     -2.035500     -0.627186
  C      -2.068223     -1.376585     -0.884707
  H      -2.423294     -1.683794      0.102602
  H      -2.619176     -0.483396     -1.179997
  H      -2.322304     -2.172345     -1.587519
  C       1.376094      0.210326      0.205823
  H       1.470427      1.114716      0.813012
  C       2.084977     -0.924053      0.948190
  H       2.079358     -1.854022      0.375687
  H       3.129194     -0.665090      1.134145
  H       1.618819     -1.124647      1.915872
  C       2.046113      0.513716     -1.136058
  H       1.507007      1.295941     -1.669990
  H       3.071121      0.856592     -0.978531
  H       2.093993     -0.369070     -1.777353
24
Coordinates from ORCA-job 23 Relaxed Surface Scan Step 7
  C      -1.374532      1.950702      0.614287
  O      -0.861926      1.115320     -0.365594
  H      -0.609370      2.292104      1.318653
  H      -2.168546      1.459366      1.187121
  H      -1.796709      2.824459      0.120914
  C      -0.213171     -0.054920      0.062006
  H      -0.607800     -0.337513      1.046805
  C      -0.572288     -1.164366     -0.922659
  H      -0.263556     -0.858039     -1.923658
  H      -0.002729     -2.062879     -0.675953
  C      -2.061556     -1.493718     -0.935242
  H      -2.401268     -1.839331      0.044788
  H      -2.649986     -0.617679     -1.206915
  H      -2.279490     -2.283878     -1.656394
  C       1.295542      0.213625      0.228815
  H       1.358685      1.095913      0.872606
  C       2.018477     -0.921575      0.957203
  H       2.063766     -1.831510      0.355493
  H       3.046427     -0.633934      1.186533
  H       1.528246     -1.169581      1.901745
  C       1.988246      0.573997     -1.086997
  H       1.440353      1.355494     -1.612980
  H       3.000187      0.938556     -0.896810
  H       2.073314     -0.288742     -1.751248
24
Coordinates from ORCA-job 23 Relaxed Surface Scan Step 8
  C      -1.269254      2.019611      0.570474
  O      -0.937251      1.056822     -0.369255
  H      -0.392850      2.535175      0.973650
  H      -1.830053      1.589880      1.407626
  H      -1.899077      2.759040      0.078796
  C      -0.254870     -0.086746      0.072669
  H      -0.655688     -0.377164      1.053308
  C      -0.578512     -1.202893     -0.916630
  H      -0.254444     -0.894309     -1.912266
  H      -0.001484     -2.092174     -0.656307
  C      -2.062006     -1.555695     -0.956992
  H      -2.414462     -1.902373      0.018121
  H      -2.659098     -0.690733     -1.243102
  H      -2.251879     -2.353106     -1.678234
  C       1.248291      0.203030      0.264854
  H       1.298600      1.043760      0.963049
  C       1.986801     -0.958316      0.935489
  H       2.076724     -1.823712      0.276360
  H       2.998669     -0.655892      1.212284
  H       1.480398     -1.283479      1.847570
  C       1.942949      0.646681     -1.024093
  H       1.390413      1.451432     -1.508570
  H       2.951072      1.008144     -0.809185
  H       2.037326     -0.175111     -1.737100
24
Coordinates from ORCA-job 23 Relaxed Surface Scan Step 9
  C      -1.167283      2.066916      0.516031
  O      -1.003628      1.002486     -0.355857
  H      -0.259371      2.669561      0.611904
  H      -1.466424      1.731331      1.515052
  H      -1.955189      2.704295      0.117744
  C      -0.292634     -0.120702      0.090760
  H      -0.694947     -0.422303      1.067623
  C      -0.586500     -1.241254     -0.902561
  H      -0.236964     -0.937530     -1.891255
  H      -0.014338     -2.126985     -0.621319
  C      -2.066891     -1.601486     -0.980161
  H      -2.444574     -1.936009     -0.010300
  H      -2.660309     -0.744226     -1.294399
  H      -2.231125     -2.410577     -1.694746
  C       1.203329      0.193763      0.302651
  H       1.235199      0.994727      1.048042
  C       1.966100     -0.984366      0.914735
  H       2.093287     -1.804878      0.206477
  H       2.963359     -0.668621      1.227256
  H       1.455422     -1.378842      1.796582
  C       1.891870      0.718177     -0.958988
  H       1.331164      1.541102     -1.401906
  H       2.895894      1.078754     -0.724267
  H       1.994869     -0.061466     -1.716580
24
Coordinates from ORCA-job 23 Relaxed Surface Scan Step 10
  C      -1.076731      2.100085      0.476582
  O      -1.080051      0.957469     -0.306289
  H      -0.160432      2.682849      0.339227
  H      -1.189797      1.869655      1.541571
  H      -1.920661      2.715199      0.167893
  C      -0.327761     -0.151421      0.110944
  H      -0.713374     -0.493057      1.079673
  C      -0.595616     -1.254116     -0.909103
  H      -0.251054     -0.919358     -1.889581
  H      -0.005467     -2.133925     -0.647268
  C      -2.067647     -1.645201     -0.998800
  H      -2.440017     -2.007106     -0.036820
  H      -2.679347     -0.795382     -1.297295
  H      -2.211155     -2.443523     -1.729809
  C       1.160803      0.191400      0.334394
  H       1.173669      0.967094      1.108655
  C       1.945441     -0.989003      0.914373
  H       2.090115     -1.786429      0.183636
  H       2.935611     -0.662126      1.237774
  H       1.441250     -1.417829      1.783675
  C       1.844475      0.760468     -0.910695
  H       1.269434      1.577838     -1.345561
  H       2.838164      1.140024     -0.662426
  H       1.970463     -0.001733     -1.682229
24
Coordinates from ORCA-job 23 Relaxed Surface Scan Step 11
  C      -1.016027      2.123702      0.460389
  O      -1.158811      0.921167     -0.211143
  H      -0.106516      2.648100      0.148671
  H      -0.999191      1.997374      1.548134
  H      -1.873117      2.744216      0.203265
  C      -0.353266     -0.178758      0.134541
  H      -0.705966     -0.590659      1.086131
  C      -0.604264     -1.235323     -0.937597
  H      -0.294771     -0.836201     -1.905576
  H       0.022855     -2.105578     -0.735450
  C      -2.063015     -1.675470     -1.017608
  H      -2.400451     -2.100714     -0.068822
  H      -2.711261     -0.834240     -1.257442
  H      -2.193947     -2.439046     -1.787128
  C       1.128577      0.190829      0.357856
  H       1.128314      0.963350      1.136609
  C       1.927512     -0.980120      0.938827
  H       2.066037     -1.784751      0.214885
  H       2.920498     -0.644434      1.244137
  H       1.438048     -1.401642      1.819723
  C       1.812708      0.761713     -0.887157
  H       1.218323      1.547051     -1.353756
  H       2.786999      1.183480     -0.630391
  H       1.981049     -0.012175     -1.638581
24
Coordinates from ORCA-job 23 Relaxed Surface Scan Step 12
  C      -0.984960      2.140616      0.448876
  O      -1.228074      0.887268     -0.087369
  H      -0.112872      2.611586     -0.017301
  H      -0.843812      2.120116      1.534229
  H      -1.858316      2.754711      0.234630
  C      -0.369080     -0.203126      0.161065
  H      -0.685676     -0.692929      1.086450
  C      -0.612358     -1.195492     -0.973285
  H      -0.354745     -0.717495     -1.920454
  H       0.058259     -2.048906     -0.853007
  C      -2.053176     -1.693461     -1.036479
  H      -2.337052     -2.201545     -0.111238
  H      -2.744131     -0.866125     -1.190225
  H      -2.180913     -2.403478     -1.856202
  C       1.107876      0.188397      0.378259
  H       1.100446      0.970634      1.146558
  C       1.913380     -0.969648      0.977096
  H       2.022528     -1.801049      0.278665
  H       2.918200     -0.633551      1.240394
  H       1.446293     -1.354227      1.886187
  C       1.797875      0.738630     -0.874060
  H       1.195841      1.494081     -1.378486
  H       2.757308      1.191836     -0.615187
  H       1.997475     -0.054974     -1.596600
24
Coordinates from ORCA-job 23 Relaxed Surface Scan Step 13
  C      -0.981615      2.148728      0.429998
  O      -1.281871      0.850686      0.052275
  H      -0.180487      2.575524     -0.181973
  H      -0.709576      2.237892      1.486067
  H      -1.881794      2.739509      0.267225
  C      -0.375691     -0.224608      0.190253
  H      -0.659118     -0.784726      1.085110
  C      -0.619746     -1.146828     -1.002737
  H      -0.414677     -0.594700     -1.922110
  H       0.088280     -1.978061     -0.965157
  C      -2.041332     -1.698119     -1.053543
  H      -2.269977     -2.285431     -0.160485
  H      -2.768608     -0.890286     -1.118547
  H      -2.173445     -2.349004     -1.920318
  C       1.099003      0.183557      0.397559
  H       1.091654      0.980221      1.148776
  C       1.905586     -0.963798      1.016409
  H       1.977779     -1.823229      0.347284
  H       2.923820     -0.635981      1.234695
  H       1.460820     -1.305062      1.953191
  C       1.797845      0.707686     -0.862250
  H       1.204663      1.454007     -1.389749
  H       2.755306      1.165070     -0.603690
  H       2.003495     -0.101175     -1.565764
24
Coordinates from ORCA-job 23 Relaxed Surface Scan Step 14
  C      -0.999349      2.147878      0.391963
  O      -1.313910      0.814606      0.187992
  H      -0.307851      2.534619     -0.361830
  H      -0.585043      2.346389      1.384423
  H      -1.931626      2.704227      0.306643
  C      -0.374320     -0.241896      0.220658
  H      -0.632983     -0.853708      1.088622
  C      -0.625435     -1.098953     -1.019500
  H      -0.463439     -0.486662     -1.909260
  H       0.108609     -1.907983     -1.053358
  C      -2.030679     -1.690595     -1.064477
  H      -2.212179     -2.343756     -0.207059
  H      -2.783015     -0.903369     -1.050710
  H      -2.172707     -2.285133     -1.969335
  C       1.100673      0.175296      0.419564
  H       1.097874      0.980693      1.158585
  C       1.904719     -0.969459      1.047609
  H       1.945598     -1.845286      0.396810
  H       2.933265     -0.654677      1.234217
  H       1.475959     -1.281584      2.001610
  C       1.808310      0.684186     -0.842380
  H       1.234264      1.443853     -1.371408
  H       2.774263      1.121876     -0.581671
  H       1.999316     -0.128693     -1.545190
24
Coordinates from ORCA-job 23 Relaxed Surface Scan Step 15
  C      -1.025523      2.142826      0.319953
  O      -1.322992      0.790204      0.292914
  H      -0.507350      2.486574     -0.578435
  H      -0.436079      2.436675      1.192116
  H      -1.977605      2.668615      0.374505
  C      -0.369146     -0.252886      0.252510
  H      -0.617920     -0.888421      1.106567
  C      -0.626186     -1.065886     -1.016411
  H      -0.485306     -0.417916     -1.884811
  H       0.118988     -1.861658     -1.093667
  C      -2.023259     -1.676087     -1.064549
  H      -2.180934     -2.367464     -0.232796
  H      -2.786610     -0.901680     -1.004402
  H      -2.172312     -2.233785     -1.991468
  C       1.107864      0.161098      0.451398
  H       1.112278      0.954407      1.201223
  C       1.909495     -0.997704      1.057098
  H       1.939393     -1.864296      0.393288
  H       2.941472     -0.692578      1.240511
  H       1.485537     -1.320766      2.009513
  C       1.819104      0.690202     -0.800465
  H       1.262044      1.479229     -1.303293
  H       2.795377      1.098650     -0.531116
  H       1.989987     -0.105484     -1.527668
24
Coordinates from ORCA-job 23 Relaxed Surface Scan Step 16
  C      -1.043561      2.127297      0.236718
  O      -1.321647      0.776843      0.374332
  H      -0.694764      2.401259     -0.761211
  H      -0.312465      2.489788      0.963240
  H      -1.977752      2.657034      0.416904
  C      -0.365349     -0.259400      0.282376
  H      -0.608127     -0.906634      1.129336
  C      -0.627475     -1.040899     -1.005666
  H      -0.500981     -0.368785     -1.858272
  H       0.124491     -1.826413     -1.113971
  C      -2.019225     -1.662916     -1.056109
  H      -2.159522     -2.381681     -0.244773
  H      -2.789290     -0.898600     -0.961098
  H      -2.175466     -2.192294     -1.998316
  C       1.113339      0.148662      0.486107
  H       1.121203      0.918263      1.259427
  C       1.915101     -1.029845      1.052966
  H       1.943390     -1.874833      0.361773
  H       2.947571     -0.731634      1.244523
  H       1.492478     -1.382930      1.995237
  C       1.824015      0.716708     -0.748735
  H       1.281364      1.540316     -1.209744
  H       2.811101      1.091688     -0.470368
  H       1.971888     -0.049126     -1.512159
24
Coordinates from ORCA-job 23 Relaxed Surface Scan Step 17
  C      -1.064682      2.091864      0.177559
  O      -1.311903      0.760809      0.473946
  H      -0.794099      2.265256     -0.865845
  H      -0.281867      2.526164      0.804664
  H      -1.987619      2.634334      0.376293
  C      -0.357752     -0.266638      0.311091
  H      -0.584384     -0.940579      1.140227
  C      -0.635187     -1.002271     -1.000937
  H      -0.528162     -0.300164     -1.832019
  H       0.122567     -1.775283     -1.151037
  C      -2.021904     -1.635490     -1.049881
  H      -2.138941     -2.388778     -0.266762
  H      -2.797207     -0.883888     -0.906712
  H      -2.193239     -2.126311     -2.010136
  C       1.122924      0.141126      0.511971
  H       1.131171      0.900651      1.295276
  C       1.926865     -1.046004      1.057757
  H       1.948791     -1.881029      0.353942
  H       2.961193     -0.753005      1.247230
  H       1.509330     -1.412100      1.997286
  C       1.832473      0.726666     -0.715516
  H       1.301466      1.570686     -1.152335
  H       2.827499      1.078562     -0.435333
  H       1.962982     -0.022710     -1.498212
24
Coordinates from ORCA-job 23 Relaxed Surface Scan Step 18
  C      -1.097386      2.042179      0.124281
  O      -1.284716      0.745873      0.578232
  H      -0.903306      2.103755     -0.948669
  H      -0.281146      2.552304      0.643014
  H      -2.016625      2.587873      0.330908
  C      -0.342703     -0.275485      0.340408
  H      -0.555478     -0.982881      1.143260
  C      -0.640244     -0.962447     -0.993949
  H      -0.534925     -0.239757     -1.807136
  H       0.111590     -1.734844     -1.174138
  C      -2.031477     -1.585512     -1.047817
  H      -2.145740     -2.360775     -0.286169
  H      -2.801683     -0.834890     -0.874055
  H      -2.215747     -2.046334     -2.020428
  C       1.139873      0.131747      0.537096
  H       1.145020      0.884088      1.328106
  C       1.948690     -1.059880      1.064921
  H       1.960848     -1.888936      0.353409
  H       2.985740     -0.771024      1.245771
  H       1.540279     -1.433341      2.005568
  C       1.844329      0.732838     -0.686071
  H       1.311987      1.582288     -1.110670
  H       2.840110      1.081724     -0.404814
  H       1.973027     -0.006694     -1.478539
24
Coordinates from ORCA-job 23 Relaxed Surface Scan Step 19
  C      -1.146624      1.985500      0.077253
  O      -1.239193      0.735813      0.670533
  H      -1.080017      1.939775     -1.012722
  H      -0.291534      2.558466      0.446218
  H      -2.052039      2.531967      0.336347
  C      -0.319395     -0.285571      0.366154
  H      -0.528326     -1.025641      1.138910
  C      -0.636211     -0.931283     -0.985107
  H      -0.505031     -0.204910     -1.790261
  H       0.094504     -1.722120     -1.172518
  C      -2.044293     -1.514267     -1.052579
  H      -2.185474     -2.292056     -0.298270
  H      -2.796228     -0.745492     -0.876821
  H      -2.235281     -1.961238     -2.030300
  C       1.163998      0.119534      0.561162
  H       1.160240      0.866606      1.358576
  C       1.980102     -1.072544      1.075002
  H       1.989959     -1.895638      0.356152
  H       3.017600     -0.782857      1.252263
  H       1.577888     -1.455011      2.014739
  C       1.860204      0.735553     -0.659350
  H       1.315922      1.579759     -1.079990
  H       2.851619      1.096215     -0.377446
  H       1.997925      0.001309     -1.455428
24
Coordinates from ORCA-job 23 Relaxed Surface Scan Step 20
  C      -1.219336      1.933871      0.037848
  O      -1.185305      0.738162      0.738591
  H      -1.356465      1.792609     -1.038024
  H      -0.321394      2.536830      0.195710
  H      -2.070966      2.499799      0.411994
  C      -0.291743     -0.288746      0.384145
  H      -0.506976     -1.052107      1.132243
  C      -0.622831     -0.902280     -0.978915
  H      -0.459019     -0.177956     -1.779151
  H       0.083428     -1.715340     -1.164998
  C      -2.048165     -1.440095     -1.062176
  H      -2.222030     -2.213218     -0.310153
  H      -2.780120     -0.650252     -0.894034
  H      -2.242429     -1.880033     -2.042391
  C       1.193645      0.106960      0.581325
  H       1.182166      0.851522      1.382324
  C       2.009013     -1.087590      1.089045
  H       2.019030     -1.906415      0.364996
  H       3.046643     -0.799856      1.269149
  H       1.605481     -1.475553      2.026002
  C       1.888813      0.729073     -0.636639
  H       1.337266      1.567649     -1.059807
  H       2.876125      1.099080     -0.352375
  H       2.035484     -0.004242     -1.432191
24
Coordinates from ORCA-job 23 Relaxed Surface Scan Step 21
  C      -1.302922      1.904145     -0.016826
  O      -1.130381      0.777003      0.771644
  H      -1.688765      1.668222     -1.012783
  H      -0.387383      2.489634     -0.127697
  H      -2.039202      2.530673      0.484018
  C      -0.268648     -0.269361      0.395371
  H      -0.501076     -1.037760      1.133914
  C      -0.608931     -0.862903     -0.973036
  H      -0.444776     -0.129326     -1.764970
  H       0.094503     -1.675223     -1.171211
  C      -2.034493     -1.400972     -1.056662
  H      -2.200677     -2.187488     -0.317070
  H      -2.770062     -0.618432     -0.870058
  H      -2.234543     -1.824515     -2.042879
  C       1.223165      0.095360      0.602248
  H       1.216802      0.826031      1.416274
  C       2.017589     -1.121397      1.090167
  H       2.021984     -1.925335      0.349405
  H       3.057882     -0.852505      1.283674
  H       1.602075     -1.523170      2.016064
  C       1.933352      0.728733     -0.600980
  H       1.402943      1.590886     -1.002978
  H       2.929373      1.067693     -0.308522
  H       2.062509      0.011877     -1.414594
24
Coordinates from ORCA-job 23 Relaxed Surface Scan Step 22
  C      -1.362851      1.894899     -0.138167
  O      -1.069702      0.873836      0.754570
  H      -1.994582      1.561766     -0.965984
  H      -0.475732      2.373655     -0.555391
  H      -1.917660      2.648738      0.418207
  C      -0.255129     -0.223110      0.413244
  H      -0.523397     -0.962992      1.168916
  C      -0.600334     -0.834975     -0.945870
  H      -0.464382     -0.099885     -1.742109
  H       0.117502     -1.631419     -1.153029
  C      -2.012720     -1.411794     -1.005467
  H      -2.133399     -2.222106     -0.283007
  H      -2.766679     -0.658468     -0.777066
  H      -2.228845     -1.816111     -1.996344
  C       1.246113      0.079362      0.639794
  H       1.259397      0.746130      1.506238
  C       2.006571     -1.192250      1.033145
  H       2.023385     -1.925782      0.223178
  H       3.044095     -0.958703      1.279443
  H       1.560081     -1.670405      1.907089
  C       1.972499      0.786993     -0.509934
  H       1.503681      1.729225     -0.788284
  H       2.999695      1.013835     -0.216870
  H       2.022709      0.161430     -1.403784
24
Coordinates from ORCA-job 23 Relaxed Surface Scan Step 23
  C      -1.352019      1.880291     -0.322596
  O      -0.969448      1.002501      0.682990
  H      -2.197596      1.505164     -0.905016
  H      -0.545767      2.128892     -1.014217
  H      -1.669060      2.800498      0.166187
  C      -0.247531     -0.182432      0.434678
  H      -0.577678     -0.856022      1.228569
  C      -0.605061     -0.860234     -0.891083
  H      -0.469297     -0.170180     -1.725944
  H       0.102415     -1.672886     -1.061973
  C      -2.020549     -1.435022     -0.912160
  H      -2.130078     -2.223152     -0.163871
  H      -2.772328     -0.676095     -0.695843
  H      -2.252064     -1.869480     -1.886649
  C       1.257774      0.046237      0.690553
  H       1.281953      0.582975      1.643148
  C       2.009752     -1.272738      0.894862
  H       2.114741     -1.837889     -0.033862
  H       3.016715     -1.080579      1.269966
  H       1.506015     -1.913986      1.621619
  C       1.970052      0.921931     -0.343359
  H       1.536986      1.919778     -0.396788
  H       3.021429      1.042095     -0.073326
  H       1.940960      0.482204     -1.343366
24
Coordinates from ORCA-job 23 Relaxed Surface Scan Step 24
  C      -1.406479      1.878037     -0.326694
  O      -0.882440      1.057656      0.661341
  H      -2.412925      1.571587     -0.625977
  H      -0.781296      1.944135     -1.218624
  H      -1.481943      2.878551      0.098125
  C      -0.229758     -0.170620      0.430387
  H      -0.596309     -0.827500      1.224094
  C      -0.582678     -0.853507     -0.894146
  H      -0.420503     -0.179928     -1.736833
  H       0.115313     -1.679084     -1.039743
  C      -2.003653     -1.414356     -0.937064
  H      -2.141184     -2.180293     -0.170602
  H      -2.756356     -0.645180     -0.766459
  H      -2.211103     -1.874329     -1.905216
  C       1.274285      0.026914      0.705125
  H       1.292465      0.549927      1.666595
  C       2.020173     -1.296626      0.892331
  H       2.133534     -1.845830     -0.044914
  H       3.023800     -1.114399      1.281373
  H       1.507041     -1.949093      1.602705
  C       1.979298      0.922431     -0.314981
  H       1.495759      1.896171     -0.391213
  H       3.015508      1.096296     -0.016922
  H       1.999767      0.470908     -1.310168
