24
Coordinates from ORCA-job 24 Relaxed Surface Scan Step 1
  C      -4.265047      2.248388     -0.059018
  H      -4.381668      2.819091      0.861125
  H      -3.196835      2.174346     -0.284461
  H      -4.753398      2.806717     -0.864295
  O      -4.836983      0.998859      0.125477
  C      -5.078705      0.213878     -1.016302
  H      -4.759194      0.770178     -1.907297
  C      -6.590622      0.004518     -1.118936
  H      -7.045959      0.996888     -1.110793
  H      -6.942984     -0.485457     -0.209832
  C      -7.064823     -0.759337     -2.351317
  H      -6.744216     -1.802209     -2.340553
  H      -8.154815     -0.755625     -2.406385
  H      -6.688836     -0.306288     -3.272491
  C      -4.238578     -1.073803     -0.954552
  H      -4.452804     -1.633630     -1.869851
  C      -2.741981     -0.752516     -0.961127
  H      -2.450038     -0.226468     -0.050970
  H      -2.150691     -1.668513     -1.019455
  H      -2.468656     -0.129514     -1.816236
  C      -4.593409     -1.959958      0.242000
  H      -5.619966     -2.325388      0.194634
  H      -3.939333     -2.833767      0.276075
  H      -4.474371     -1.410328      1.176548
24
Coordinates from ORCA-job 24 Relaxed Surface Scan Step 2
  C      -4.365593      2.281758     -0.074370
  H      -4.393212      2.798608      0.883595
  H      -3.347583      2.346816     -0.472644
  H      -5.041127      2.805098     -0.758909
  O      -4.746810      0.964898      0.129404
  C      -5.028444      0.193310     -1.011638
  H      -4.689199      0.735173     -1.904164
  C      -6.546289      0.030423     -1.116005
  H      -6.975413      1.034833     -1.094139
  H      -6.913037     -0.463740     -0.214932
  C      -7.041084     -0.700583     -2.360324
  H      -6.746969     -1.751281     -2.366012
  H      -8.130611     -0.668340     -2.415194
  H      -6.653253     -0.242752     -3.274162
  C      -4.222861     -1.114680     -0.943628
  H      -4.459015     -1.679626     -1.850252
  C      -2.720651     -0.821743     -0.967939
  H      -2.416873     -0.269463     -0.077607
  H      -2.145011     -1.748980     -1.000219
  H      -2.442761     -0.231225     -1.844430
  C      -4.586889     -1.978625      0.266356
  H      -5.624708     -2.313077      0.236702
  H      -3.959177     -2.871611      0.298440
  H      -4.437341     -1.425132      1.194059
24
Coordinates from ORCA-job 24 Relaxed Surface Scan Step 3
  C      -4.450794      2.305131     -0.074803
  H      -4.360344      2.777061      0.902240
  H      -3.525636      2.486027     -0.632665
  H      -5.276567      2.787307     -0.607603
  O      -4.669701      0.950472      0.119455
  C      -4.984949      0.185174     -1.015827
  H      -4.630474      0.711204     -1.911655
  C      -6.506916      0.057158     -1.121130
  H      -6.918143      1.069355     -1.105329
  H      -6.885407     -0.427623     -0.219803
  C      -7.015391     -0.665252     -2.365176
  H      -6.744846     -1.722207     -2.368187
  H      -8.103799     -0.608695     -2.422459
  H      -6.615429     -0.217937     -3.278970
  C      -4.211143     -1.140805     -0.937910
  H      -4.467350     -1.710070     -1.836178
  C      -2.702878     -0.882380     -0.976837
  H      -2.380674     -0.324796     -0.096701
  H      -2.148647     -1.822841     -1.002354
  H      -2.419393     -0.309033     -1.862904
  C      -4.586573     -1.982317      0.284399
  H      -5.633243     -2.289137      0.268062
  H      -3.982648     -2.891453      0.319251
  H      -4.412965     -1.424285      1.205071
24
Coordinates from ORCA-job 24 Relaxed Surface Scan Step 4
  C      -4.507088      2.319413     -0.062856
  H      -4.269021      2.755781      0.905655
  H      -3.707218      2.578747     -0.765064
  H      -5.436644      2.772626     -0.420700
  O      -4.614088      0.948015      0.103365
  C      -4.954779      0.185586     -1.024674
  H      -4.589887      0.698451     -1.924335
  C      -6.479199      0.080150     -1.132701
  H      -6.878562      1.096996     -1.139279
  H      -6.868750     -0.384739     -0.225536
  C      -6.993141     -0.655106     -2.367284
  H      -6.740604     -1.716269     -2.350935
  H      -8.080099     -0.581099     -2.431538
  H      -6.580849     -0.230055     -3.286188
  C      -4.204349     -1.153162     -0.937144
  H      -4.472037     -1.724419     -1.830565
  C      -2.691793     -0.922141     -0.980787
  H      -2.357451     -0.365102     -0.105161
  H      -2.155101     -1.872871     -1.002841
  H      -2.400711     -0.358777     -1.870770
  C      -4.593179     -1.978863      0.291822
  H      -5.646103     -2.263881      0.280565
  H      -4.008215     -2.900161      0.330436
  H      -4.405042     -1.419059      1.208502
24
Coordinates from ORCA-job 24 Relaxed Surface Scan Step 5
  C      -4.551769      2.328744     -0.046709
  H      -4.166683      2.746513      0.881981
  H      -3.898570      2.648186     -0.866067
  H      -5.547351      2.747467     -0.220656
  O      -4.567595      0.949526      0.085321
  C      -4.929442      0.188665     -1.036020
  H      -4.556217      0.690151     -1.939031
  C      -6.455401      0.102307     -1.146979
  H      -6.843801      1.122675     -1.181592
  H      -6.854955     -0.336958     -0.231230
  C      -6.973988     -0.654013     -2.367085
  H      -6.740316     -1.718616     -2.323721
  H      -8.059025     -0.562479     -2.440385
  H      -6.548499     -0.258218     -3.292995
  C      -4.198864     -1.160375     -0.939097
  H      -4.473484     -1.732382     -1.829761
  C      -2.682881     -0.952767     -0.981993
  H      -2.340461     -0.398338     -0.108089
  H      -2.161402     -1.912029     -1.001601
  H      -2.382907     -0.396149     -1.873248
  C      -4.602277     -1.973585      0.293518
  H      -5.660051     -2.240291      0.283346
  H      -4.033452     -2.904760      0.336299
  H      -4.404523     -1.413214      1.207782
24
Coordinates from ORCA-job 24 Relaxed Surface Scan Step 6
  C      -4.594290      2.333607     -0.028967
  H      -4.075913      2.752084      0.832338
  H      -4.105795      2.701883     -0.937611
  H      -5.622996      2.705065     -0.019500
  O      -4.523406      0.952890      0.065657
  C      -4.904112      0.192685     -1.048920
  H      -4.523831      0.683311     -1.955475
  C      -6.431201      0.126172     -1.162232
  H      -6.805846      1.150132     -1.228092
  H      -6.840398     -0.282468     -0.236335
  C      -6.956923     -0.654931     -2.363688
  H      -6.744006     -1.722032     -2.288818
  H      -8.039529     -0.544660     -2.446335
  H      -6.518581     -0.293553     -3.297622
  C      -4.192637     -1.165646     -0.942936
  H      -4.472056     -1.737382     -1.832162
  C      -2.673650     -0.980258     -0.981712
  H      -2.325332     -0.429617     -0.107952
  H      -2.166733     -1.947381     -0.999132
  H      -2.363459     -0.429017     -1.872775
  C      -4.612304     -1.967854      0.291463
  H      -5.674409     -2.216940      0.279754
  H      -4.059142     -2.908210      0.338722
  H      -4.407361     -1.407819      1.204318
24
Coordinates from ORCA-job 24 Relaxed Surface Scan Step 7
  C      -4.638273      2.333164     -0.010349
  H      -4.003222      2.773312      0.757297
  H      -4.333790      2.737053     -0.981779
  H      -5.669018      2.644865      0.180588
  O      -4.479069      0.957389      0.044344
  C      -4.877732      0.196421     -1.062635
  H      -4.490892      0.675228     -1.973318
  C      -6.405641      0.151006     -1.177922
  H      -6.764454      1.178424     -1.273512
  H      -6.824513     -0.227104     -0.243117
  C      -6.940476     -0.652397     -2.360667
  H      -6.748170     -1.720839     -2.256257
  H      -8.020367     -0.523823     -2.451707
  H      -6.490985     -0.324265     -3.301521
  C      -4.185710     -1.170708     -0.946661
  H      -4.470155     -1.743022     -1.833807
  C      -2.664028     -1.007657     -0.981540
  H      -2.309803     -0.459529     -0.108724
  H      -2.171795     -1.982440     -0.995114
  H      -2.343661     -0.463450     -1.873268
  C      -4.621353     -1.960368      0.290306
  H      -5.687507     -2.191685      0.277185
  H      -4.084128     -2.909640      0.342979
  H      -4.409171     -1.399875      1.201190
24
Coordinates from ORCA-job 24 Relaxed Surface Scan Step 8
  C      -4.672629      2.329672      0.006913
  H      -3.930410      2.804120      0.648839
  H      -4.566620      2.742783     -1.000636
  H      -5.666551      2.592550      0.379971
  O      -4.448346      0.961389      0.028401
  C      -4.856959      0.199868     -1.074389
  H      -4.462303      0.669642     -1.986531
  C      -6.384939      0.171683     -1.194102
  H      -6.730233      1.201536     -1.315386
  H      -6.811557     -0.180044     -0.252271
  C      -6.926482     -0.650549     -2.360640
  H      -6.751871     -1.719102     -2.230297
  H      -8.003652     -0.506567     -2.460322
  H      -6.467141     -0.351700     -3.306466
  C      -4.179944     -1.173791     -0.949702
  H      -4.465740     -1.745767     -1.836647
  C      -2.656367     -1.027535     -0.977274
  H      -2.300384     -0.481790     -0.103774
  H      -2.175188     -2.007868     -0.987129
  H      -2.325799     -0.488154     -1.868187
  C      -4.630619     -1.954319      0.287580
  H      -5.699681     -2.171905      0.271230
  H      -4.105785     -2.910208      0.345187
  H      -4.414710     -1.393884      1.197619
24
Coordinates from ORCA-job 24 Relaxed Surface Scan Step 9
  C      -4.680910      2.328819      0.017698
  H      -3.830673      2.830790      0.482093
  H      -4.787366      2.714044     -0.998882
  H      -5.584736      2.592684      0.573741
  O      -4.450829      0.960082      0.030784
  C      -4.852379      0.199757     -1.075764
  H      -4.450371      0.668753     -1.984946
  C      -6.379731      0.174827     -1.205763
  H      -6.721343      1.205790     -1.331577
  H      -6.813294     -0.174589     -0.266331
  C      -6.915710     -0.647467     -2.374900
  H      -6.744816     -1.716328     -2.242006
  H      -7.991789     -0.500712     -2.482079
  H      -6.449165     -0.351142     -3.317998
  C      -4.178593     -1.174903     -0.946947
  H      -4.459431     -1.746036     -1.836048
  C      -2.654677     -1.031056     -0.964110
  H      -2.303923     -0.485936     -0.088104
  H      -2.175002     -2.012172     -0.970718
  H      -2.317121     -0.492201     -1.852703
  C      -4.639029     -1.955071      0.286943
  H      -5.708566     -2.169637      0.263860
  H      -4.117210     -2.912462      0.347128
  H      -4.427248     -1.395775      1.198619
24
Coordinates from ORCA-job 24 Relaxed Surface Scan Step 10
  C      -4.434655      2.295081     -0.031302
  H      -3.348710      2.423919     -0.040807
  H      -4.837590      2.728895     -0.952886
  H      -4.834421      2.856667      0.812867
  O      -4.777405      0.959022      0.121241
  C      -5.003679      0.183984     -1.028196
  H      -4.607653      0.712050     -1.904919
  C      -6.515112      0.035896     -1.214216
  H      -6.934330      1.044751     -1.200647
  H      -6.932937     -0.463994     -0.338867
  C      -6.950696     -0.677204     -2.490424
  H      -6.663555     -1.729922     -2.492753
  H      -8.035706     -0.636578     -2.601016
  H      -6.513116     -0.212326     -3.377846
  C      -4.216009     -1.130573     -0.904959
  H      -4.406784     -1.700541     -1.819215
  C      -2.712731     -0.847981     -0.848299
  H      -2.455127     -0.293150      0.054875
  H      -2.141988     -1.778820     -0.845486
  H      -2.383754     -0.262467     -1.710400
  C      -4.652864     -1.982793      0.289120
  H      -5.690271     -2.309174      0.205015
  H      -4.035425     -2.880611      0.361179
  H      -4.549390     -1.424071      1.219927
24
Coordinates from ORCA-job 24 Relaxed Surface Scan Step 11
  C      -4.448844      2.288320     -0.041234
  H      -3.411040      2.394534     -0.371531
  H      -5.093809      2.793812     -0.769089
  H      -4.554875      2.793453      0.917613
  O      -4.791605      0.956794      0.134165
  C      -5.003690      0.184982     -1.020828
  H      -4.598135      0.718228     -1.890489
  C      -6.512472      0.034901     -1.227082
  H      -6.935480      1.042094     -1.214966
  H      -6.941237     -0.471627     -0.360981
  C      -6.928693     -0.671552     -2.513603
  H      -6.635651     -1.722593     -2.520216
  H      -8.012544     -0.636256     -2.636727
  H      -6.483340     -0.197650     -3.392313
  C      -4.215665     -1.128968     -0.892264
  H      -4.398558     -1.698846     -1.808078
  C      -2.712810     -0.846705     -0.823041
  H      -2.462950     -0.287980      0.079895
  H      -2.142936     -1.777990     -0.810477
  H      -2.375376     -0.265898     -1.684998
  C      -4.662527     -1.981331      0.298057
  H      -5.699167     -2.307751      0.205286
  H      -4.045668     -2.879118      0.375094
  H      -4.566842     -1.422792      1.229795
24
Coordinates from ORCA-job 24 Relaxed Surface Scan Step 12
  C      -4.526144      2.308661     -0.039953
  H      -3.595466      2.517219     -0.578144
  H      -5.349289      2.784863     -0.582706
  H      -4.461212      2.764133      0.946778
  O      -4.719581      0.947191      0.130377
  C      -4.963535      0.183831     -1.022647
  H      -4.543755      0.705811     -1.892573
  C      -6.475373      0.064483     -1.234474
  H      -6.881595      1.078620     -1.247919
  H      -6.920076     -0.419252     -0.363358
  C      -6.898560     -0.654051     -2.512524
  H      -6.632467     -1.712031     -2.498789
  H      -7.980080     -0.593211     -2.645650
  H      -6.433990     -0.206576     -3.395132
  C      -4.205629     -1.146729     -0.889208
  H      -4.403106     -1.716564     -1.801754
  C      -2.696593     -0.898079     -0.825015
  H      -2.431525     -0.341364      0.074422
  H      -2.148234     -1.842261     -0.811997
  H      -2.349709     -0.327688     -1.690177
  C      -4.670016     -1.983171      0.305832
  H      -5.715232     -2.282638      0.217682
  H      -4.076459     -2.896476      0.383433
  H      -4.556284     -1.424660      1.235485
24
Coordinates from ORCA-job 24 Relaxed Surface Scan Step 13
  C      -4.585137      2.322257     -0.026796
  H      -3.791724      2.611435     -0.724775
  H      -5.524498      2.760930     -0.376149
  H      -4.356073      2.746921      0.949051
  O      -4.659681      0.946188      0.117068
  C      -4.931301      0.186934     -1.031126
  H      -4.500573      0.696351     -1.903463
  C      -6.445118      0.091003     -1.247223
  H      -6.837273      1.109598     -1.291823
  H      -6.902929     -0.365058     -0.367828
  C      -6.873480     -0.649975     -2.511026
  H      -6.631367     -1.712813     -2.469244
  H      -7.952236     -0.568258     -2.654849
  H      -6.391957     -0.234577     -3.400184
  C      -4.198702     -1.157020     -0.890138
  H      -4.407162     -1.727570     -1.799542
  C      -2.685059     -0.937496     -0.828080
  H      -2.408095     -0.382959      0.068784
  H      -2.155635     -1.892463     -0.813559
  H      -2.328713     -0.376284     -1.695385
  C      -4.679176     -1.978394      0.309032
  H      -5.731149     -2.254502      0.224307
  H      -4.106187     -2.904596      0.388413
  H      -4.550687     -1.419591      1.236524
24
Coordinates from ORCA-job 24 Relaxed Surface Scan Step 14
  C      -4.632009      2.330023     -0.011120
  H      -3.992956      2.677822     -0.830487
  H      -5.638960      2.725571     -0.171348
  H      -4.251338      2.744158      0.920940
  O      -4.612042      0.949123      0.101047
  C      -4.903881      0.191649     -1.042279
  H      -4.464162      0.689828     -1.916953
  C      -6.418775      0.115784     -1.261787
  H      -6.795808      1.138134     -1.338455
  H      -6.886803     -0.308317     -0.371521
  C      -6.854803     -0.652515     -2.506490
  H      -6.637664     -1.718810     -2.431652
  H      -7.930304     -0.550083     -2.660882
  H      -6.357588     -0.274584     -3.403676
  C      -4.191941     -1.162560     -0.893841
  H      -4.405358     -1.731792     -1.802803
  C      -2.675292     -0.966410     -0.826726
  H      -2.392467     -0.416590      0.070971
  H      -2.161165     -1.929737     -0.811821
  H      -2.307961     -0.409842     -1.692416
  C      -4.689706     -1.973675      0.305196
  H      -5.746381     -2.230939      0.218930
  H      -4.133579     -2.909915      0.386828
  H      -4.552969     -1.416261      1.232332
24
Coordinates from ORCA-job 24 Relaxed Surface Scan Step 15
  C      -4.678412      2.331830      0.004734
  H      -4.201071      2.725870     -0.899564
  H      -5.718028      2.670277      0.019070
  H      -4.174500      2.756072      0.871689
  O      -4.565131      0.952832      0.083261
  C      -4.876659      0.195245     -1.053908
  H      -4.430596      0.681945     -1.932442
  C      -6.392487      0.140278     -1.275359
  H      -6.752061      1.166333     -1.381325
  H      -6.871504     -0.253701     -0.376858
  C      -6.837712     -0.650808     -2.502695
  H      -6.642667     -1.718946     -2.399864
  H      -7.910100     -0.530463     -2.665527
  H      -6.328411     -0.305597     -3.406234
  C      -4.184786     -1.168090     -0.897186
  H      -4.404109     -1.738203     -1.804056
  C      -2.665501     -0.994564     -0.827340
  H      -2.375889     -0.446884      0.069324
  H      -2.166443     -1.965787     -0.809649
  H      -2.288508     -0.445446     -1.693579
  C      -4.698211     -1.966397      0.303883
  H      -5.759197     -2.205208      0.216775
  H      -4.158830     -2.912041      0.389440
  H      -4.553098     -1.408488      1.229398
24
Coordinates from ORCA-job 24 Relaxed Surface Scan Step 16
  C      -4.721141      2.328984      0.019516
  H      -4.410753      2.752276     -0.942548
  H      -5.763756      2.606433      0.196285
  H      -4.115309      2.779646      0.804318
  O      -4.523373      0.957695      0.065257
  C      -4.851012      0.198537     -1.065771
  H      -4.398423      0.673455     -1.947689
  C      -6.367304      0.163578     -1.288807
  H      -6.709695      1.192900     -1.419768
  H      -6.855041     -0.202507     -0.382931
  C      -6.823163     -0.646760     -2.499588
  H      -6.648761     -1.715711     -2.371887
  H      -7.892481     -0.509659     -2.669134
  H      -6.304282     -0.331657     -3.408630
  C      -4.177689     -1.172727     -0.900337
  H      -4.401692     -1.743756     -1.805434
  C      -2.656351     -1.019632     -0.826684
  H      -2.361534     -0.473404      0.069044
  H      -2.170992     -1.997731     -0.805352
  H      -2.269849     -0.477864     -1.693310
  C      -4.705801     -1.958686      0.302474
  H      -5.770310     -2.181049      0.214227
  H      -4.181533     -2.912391      0.392427
  H      -4.553667     -1.399906      1.226310
24
Coordinates from ORCA-job 24 Relaxed Surface Scan Step 17
  C      -4.756375      2.323642      0.032469
  H      -4.620307      2.755249     -0.965689
  H      -5.772385      2.548562      0.367433
  H      -4.061015      2.811414      0.714677
  O      -4.491115      0.962672      0.049324
  C      -4.829768      0.200686     -1.076529
  H      -4.369782      0.664445     -1.960394
  C      -6.345981      0.182018     -1.301619
  H      -6.675214      1.213861     -1.448992
  H      -6.839718     -0.164467     -0.391067
  C      -6.810342     -0.639945     -2.501175
  H      -6.652394     -1.709274     -2.356705
  H      -7.876947     -0.489192     -2.676059
  H      -6.284102     -0.346423     -3.413188
  C      -4.172023     -1.176702     -0.901885
  H      -4.398911     -1.749103     -1.805416
  C      -2.649227     -1.040147     -0.823686
  H      -2.351227     -0.494170      0.071071
  H      -2.175050     -2.023611     -0.797837
  H      -2.254120     -0.505298     -1.690691
  C      -4.712635     -1.951316      0.302633
  H      -5.779462     -2.161861      0.212890
  H      -4.199606     -2.910592      0.397979
  H      -4.556204     -1.390390      1.224444
24
Coordinates from ORCA-job 24 Relaxed Surface Scan Step 18
  C      -4.770533      2.321593      0.040552
  H      -4.824381      2.729622     -0.974346
  H      -5.716209      2.535285      0.545241
  H      -3.977404      2.842033      0.577670
  O      -4.486280      0.963189      0.045260
  C      -4.822287      0.199451     -1.080277
  H      -4.355079      0.657807     -1.963012
  C      -6.337614      0.185801     -1.311510
  H      -6.662912      1.219475     -1.457134
  H      -6.836068     -0.162205     -0.404180
  C      -6.799272     -0.631302     -2.515456
  H      -6.644807     -1.701484     -2.373355
  H      -7.864694     -0.477205     -2.694581
  H      -6.268160     -0.336633     -3.424264
  C      -4.170182     -1.179649     -0.898700
  H      -4.394625     -1.753392     -1.802056
  C      -2.647343     -1.047975     -0.813318
  H      -2.351980     -0.501359      0.081926
  H      -2.176633     -2.032991     -0.783453
  H      -2.246243     -0.515977     -1.679307
  C      -4.719346     -1.949631      0.304880
  H      -5.785979     -2.158681      0.209456
  H      -4.208591     -2.909523      0.406081
  H      -4.567290     -1.386190      1.225873
24
Coordinates from ORCA-job 24 Relaxed Surface Scan Step 19
  C      -4.539277      2.306690      0.016172
  H      -4.857139      2.707838     -0.948956
  H      -5.083427      2.836097      0.799109
  H      -3.471982      2.516855      0.134448
  O      -4.792435      0.945632      0.132165
  C      -4.965854      0.182847     -1.033139
  H      -4.509681      0.707000     -1.882357
  C      -6.464431      0.059700     -1.322812
  H      -6.861808      1.077155     -1.357517
  H      -6.955911     -0.420865     -0.475419
  C      -6.820842     -0.661410     -2.619193
  H      -6.544931     -1.716676     -2.591373
  H      -7.895510     -0.612040     -2.802946
  H      -6.319572     -0.210609     -3.479754
  C      -4.207121     -1.143286     -0.864415
  H      -4.350531     -1.709812     -1.789146
  C      -2.706782     -0.882672     -0.713770
  H      -2.499338     -0.326504      0.201157
  H      -2.151249     -1.821776     -0.670659
  H      -2.315420     -0.306719     -1.556028
  C      -4.733036     -1.989353      0.298003
  H      -5.769909     -2.293060      0.147335
  H      -4.140296     -2.900119      0.405766
  H      -4.677429     -1.434852      1.235318
24
Coordinates from ORCA-job 24 Relaxed Surface Scan Step 20
  C      -4.448929      2.271498      0.020934
  H      -4.933397      2.812215     -0.798120
  H      -4.675179      2.791200      0.950986
  H      -3.367172      2.309027     -0.144509
  O      -4.908796      0.968915      0.138675
  C      -5.019640      0.199868     -1.032611
  H      -4.565086      0.746936     -1.867414
  C      -6.507083      0.028765     -1.347832
  H      -6.937679      1.031708     -1.393863
  H      -6.994972     -0.460910     -0.503522
  C      -6.819341     -0.713136     -2.643863
  H      -6.529982     -1.764156     -2.597770
  H      -7.889540     -0.680195     -2.855292
  H      -6.303016     -0.264211     -3.496534
  C      -4.223572     -1.104495     -0.859075
  H      -4.324486     -1.663767     -1.793942
  C      -2.734942     -0.805071     -0.666293
  H      -2.563464     -0.263481      0.265060
  H      -2.155263     -1.729527     -0.627469
  H      -2.338488     -0.202262     -1.487042
  C      -4.751675     -1.979266      0.280613
  H      -5.772436     -2.318911      0.100362
  H      -4.129489     -2.869135      0.396878
  H      -4.740284     -1.431547      1.223632
24
Coordinates from ORCA-job 24 Relaxed Surface Scan Step 21
  C      -4.521916      2.291860      0.003318
  H      -5.177742      2.811071     -0.703361
  H      -4.630189      2.765783      0.977603
  H      -3.489146      2.423344     -0.337168
  O      -4.848865      0.952849      0.144959
  C      -4.984102      0.190506     -1.027220
  H      -4.514077      0.727043     -1.860802
  C      -6.474081      0.047792     -1.346967
  H      -6.890792      1.056988     -1.388657
  H      -6.971545     -0.440322     -0.507340
  C      -6.795763     -0.678817     -2.649378
  H      -6.518860     -1.733519     -2.612825
  H      -7.865603     -0.631257     -2.859831
  H      -6.274496     -0.228337     -3.498184
  C      -4.213565     -1.128008     -0.849178
  H      -4.328918     -1.690614     -1.780245
  C      -2.718957     -0.853707     -0.664840
  H      -2.534904     -0.304044      0.259109
  H      -2.155742     -1.787993     -0.618727
  H      -2.315704     -0.266881     -1.493835
  C      -4.753297     -1.985945      0.297827
  H      -5.781983     -2.305106      0.125089
  H      -4.149018     -2.888025      0.414354
  H      -4.724647     -1.434599      1.238288
24
Coordinates from ORCA-job 24 Relaxed Surface Scan Step 22
  C      -4.600554      2.310350     -0.003211
  H      -5.420585      2.785753     -0.550744
  H      -4.558637      2.748839      0.992362
  H      -3.665019      2.540982     -0.524406
  O      -4.780236      0.944390      0.142720
  C      -4.945090      0.186424     -1.027327
  H      -4.460334      0.709052     -1.862152
  C      -6.437640      0.072058     -1.350823
  H      -6.838652      1.087051     -1.402251
  H      -6.947285     -0.404225     -0.511676
  C      -6.767424     -0.653538     -2.652094
  H      -6.511050     -1.713132     -2.610382
  H      -7.835190     -0.586184     -2.867571
  H      -6.233772     -0.216252     -3.500067
  C      -4.203626     -1.147492     -0.842784
  H      -4.335444     -1.713338     -1.769503
  C      -2.702530     -0.904812     -0.666984
  H      -2.502343     -0.352231      0.251499
  H      -2.159995     -1.851161     -0.617618
  H      -2.291123     -0.332506     -1.502091
  C      -4.757647     -1.985995      0.311845
  H      -5.795063     -2.280164      0.146884
  H      -4.175370     -2.902364      0.428824
  H      -4.709303     -1.431447      1.249540
24
Coordinates from ORCA-job 24 Relaxed Surface Scan Step 23
  C      -4.673852      2.323882      0.007534
  H      -5.630211      2.743099     -0.318724
  H      -4.439262      2.738910      0.986231
  H      -3.899780      2.645003     -0.698069
  O      -4.710837      0.944368      0.130588
  C      -4.906070      0.189642     -1.035568
  H      -4.408773      0.697440     -1.873010
  C      -6.400344      0.102403     -1.363842
  H      -6.781176      1.122756     -1.448267
  H      -6.925702     -0.341982     -0.516675
  C      -6.738443     -0.647845     -2.649306
  H      -6.511478     -1.712439     -2.578593
  H      -7.802114     -0.556967     -2.876029
  H      -6.186031     -0.246668     -3.503066
  C      -4.193892     -1.158924     -0.843199
  H      -4.336869     -1.725680     -1.767461
  C      -2.687874     -0.948942     -0.667308
  H      -2.475448     -0.399019      0.249663
  H      -2.166829     -1.907326     -0.617175
  H      -2.264520     -0.386888     -1.503374
  C      -4.767965     -1.980282      0.314023
  H      -5.812723     -2.248436      0.150629
  H      -4.208995     -2.910860      0.432548
  H      -4.704724     -1.425184      1.250440
24
Coordinates from ORCA-job 24 Relaxed Surface Scan Step 24
  C      -4.748249      2.328432      0.027880
  H      -5.787078      2.663903     -0.037893
  H      -4.313677      2.752244      0.931811
  H      -4.202207      2.725657     -0.834892
  O      -4.639202      0.949509      0.110867
  C      -4.863611      0.196122     -1.049603
  H      -4.355112      0.687663     -1.890815
  C      -6.358858      0.139452     -1.382375
  H      -6.711465      1.165395     -1.510919
  H      -6.901613     -0.258283     -0.522580
  C      -6.711434     -0.647991     -2.641666
  H      -6.522483     -1.716180     -2.528456
  H      -7.769226     -0.528723     -2.882210
  H      -6.137943     -0.298795     -3.504288
  C      -4.182059     -1.166479     -0.848122
  H      -4.332514     -1.732792     -1.771290
  C      -2.672490     -0.990176     -0.665521
  H      -2.451253     -0.445425      0.252163
  H      -2.173847     -1.960435     -0.614641
  H      -2.233764     -0.436898     -1.499445
  C      -4.780917     -1.971187      0.308247
  H      -5.831974     -2.211932      0.141989
  H      -4.246951     -2.916004      0.429452
  H      -4.705985     -1.417017      1.244297
