27
Coordinates from ORCA-job 28 Relaxed Surface Scan Step 1
  C      -2.033668      0.334999      1.155368
  H      -1.756572     -0.568024      0.605310
  H      -1.616160      0.215875      2.154354
  C      -1.415717      1.576201      0.483790
  H      -1.797506      2.441551      1.032448
  C       0.152875      1.673344      0.574149
  H       0.376352      2.598365      1.120295
  C       0.900822      0.542289      1.303403
  H       1.901143      0.505972      0.868433
  H       0.452770     -0.424226      1.075143
  C       1.038545      0.730082      2.812957
  H       0.075574      0.814971      3.317940
  H       1.569714     -0.111465      3.261641
  H       1.605573      1.635900      3.041726
  C      -1.918652      1.739829     -0.955943
  H      -3.007000      1.796708     -0.971812
  H      -1.533772      2.650415     -1.409548
  H      -1.608182      0.905672     -1.585877
  C      -3.554887      0.381679      1.298126
  H      -3.905406     -0.465283      1.891396
  H      -3.878106      1.294715      1.804942
  H      -4.066981      0.336099      0.337011
  C       1.780951      2.606174     -0.886776
  H       2.643045      2.268030     -0.302553
  H       2.057530      2.587782     -1.939557
  H       1.563274      3.641858     -0.602764
  O       0.674525      1.790433     -0.724558
27
Coordinates from ORCA-job 28 Relaxed Surface Scan Step 2
  C      -2.069566      0.395947      1.200883
  H      -1.860773     -0.551388      0.695287
  H      -1.611025      0.323093      2.185770
  C      -1.436634      1.552335      0.402863
  H      -1.860215      2.472220      0.818892
  C       0.121201      1.694524      0.559979
  H       0.295082      2.579600      1.181334
  C       0.874788      0.517421      1.215777
  H       1.860989      0.465942      0.754614
  H       0.394127     -0.430100      0.973334
  C       1.075215      0.645042      2.725569
  H       0.136625      0.729815      3.273871
  H       1.606456     -0.223520      3.119608
  H       1.670410      1.530083      2.964031
  C      -1.864894      1.483341     -1.068444
  H      -2.949941      1.412759     -1.144658
  H      -1.547330      2.364480     -1.619418
  H      -1.432238      0.613833     -1.565854
  C      -3.577867      0.528725      1.409695
  H      -3.949959     -0.290420      2.028391
  H      -3.824403      1.463826      1.918979
  H      -4.134981      0.504895      0.473037
  C       1.794559      2.769096     -0.740258
  H       2.641409      2.339407     -0.195424
  H       2.087208      2.886585     -1.782213
  H       1.590447      3.761452     -0.322633
  O       0.671392      1.960950     -0.703971
27
Coordinates from ORCA-job 28 Relaxed Surface Scan Step 3
  C      -2.100177      0.480826      1.264209
  H      -1.903541     -0.513008      0.850394
  H      -1.643043      0.501751      2.253075
  C      -1.451810      1.537084      0.349489
  H      -1.906230      2.494113      0.628545
  C       0.087474      1.717080      0.558757
  H       0.224362      2.554175      1.251661
  C       0.848373      0.494766      1.125556
  H       1.806709      0.421963      0.614617
  H       0.324957     -0.429195      0.880464
  C       1.133588      0.556228      2.626234
  H       0.227584      0.627545      3.228305
  H       1.673172     -0.334922      2.952905
  H       1.753572      1.423077      2.868450
  C      -1.801438      1.252122     -1.116011
  H      -2.875326      1.103072     -1.231453
  H      -1.501682      2.069593     -1.765306
  H      -1.298348      0.349707     -1.470404
  C      -3.606417      0.658222      1.450532
  H      -4.003443     -0.111639      2.115292
  H      -3.835623      1.628980      1.896954
  H      -4.154413      0.589255      0.510388
  C       1.778365      2.909700     -0.605173
  H       2.617474      2.404666     -0.115930
  H       2.074489      3.147357     -1.625400
  H       1.588235      3.847648     -0.071284
  O       0.643219      2.119779     -0.665825
27
Coordinates from ORCA-job 28 Relaxed Surface Scan Step 4
  C      -2.107686      0.621428      1.366695
  H      -1.845215     -0.416020      1.136636
  H      -1.705982      0.837124      2.357803
  C      -1.448140      1.540631      0.324913
  H      -1.908938      2.526242      0.454848
  C       0.073995      1.743834      0.559785
  H       0.193421      2.526524      1.318666
  C       0.844927      0.482378      1.019651
  H       1.799192      0.447802      0.499057
  H       0.318881     -0.417886      0.700241
  C       1.141818      0.408671      2.517533
  H       0.240458      0.386688      3.128971
  H       1.714414     -0.491479      2.749682
  H       1.735943      1.267663      2.839566
  C      -1.741523      1.052735     -1.097924
  H      -2.812062      0.910949     -1.247203
  H      -1.387829      1.763485     -1.839179
  H      -1.250806      0.095946     -1.294540
  C      -3.628047      0.750795      1.447041
  H      -4.027457      0.095381      2.223641
  H      -3.923181      1.773230      1.695081
  H      -4.119586      0.482096      0.511652
  C       1.746845      3.045293     -0.509467
  H       2.591195      2.503039     -0.072045
  H       2.034047      3.371518     -1.507497
  H       1.557645      3.932999      0.104666
  O       0.613754      2.258877     -0.629232
27
Coordinates from ORCA-job 28 Relaxed Surface Scan Step 5
  C      -2.114467      0.771627      1.453319
  H      -1.788887     -0.273182      1.435973
  H      -1.776487      1.188266      2.405819
  C      -1.435780      1.529391      0.302851
  H      -1.874823      2.532387      0.278917
  C       0.071745      1.747577      0.557701
  H       0.165857      2.463330      1.385191
  C       0.865590      0.468986      0.913827
  H       1.820054      0.499722      0.391009
  H       0.354711     -0.410044      0.517862
  C       1.148883      0.272293      2.402464
  H       0.237981      0.174514      2.992594
  H       1.741028     -0.630726      2.563534
  H       1.715798      1.113773      2.808622
  C      -1.701512      0.873747     -1.056139
  H      -2.770276      0.840416     -1.269527
  H      -1.217878      1.431666     -1.853940
  H      -1.329576     -0.153414     -1.088133
  C      -3.641148      0.819971      1.433266
  H      -4.051912      0.321297      2.313416
  H      -4.003403      1.850870      1.438817
  H      -4.059457      0.325767      0.555842
  C       1.706366      3.171363     -0.410026
  H       2.564507      2.619416     -0.013303
  H       1.984098      3.577720     -1.380938
  H       1.495581      4.006034      0.268052
  O       0.593488      2.367178     -0.588028
27
Coordinates from ORCA-job 28 Relaxed Surface Scan Step 6
  C      -2.148042      0.898780      1.509434
  H      -1.831800     -0.134928      1.675911
  H      -1.846919      1.456086      2.401403
  C      -1.418042      1.481564      0.290675
  H      -1.816874      2.486176      0.119605
  C       0.079602      1.719325      0.561179
  H       0.145577      2.363441      1.447108
  C       0.935642      0.461531      0.817793
  H       1.897710      0.613062      0.326114
  H       0.491074     -0.403538      0.323453
  C       1.187852      0.140380      2.289892
  H       0.264628     -0.047151      2.838614
  H       1.813537     -0.748844      2.388029
  H       1.705299      0.963433      2.789064
  C      -1.664453      0.680380     -0.991966
  H      -2.710190      0.743846     -1.294896
  H      -1.059477      1.072049     -1.807782
  H      -1.426954     -0.378560     -0.866393
  C      -3.671827      0.939039      1.411510
  H      -4.126338      0.584523      2.338748
  H      -4.029241      1.956545      1.235697
  H      -4.048725      0.310352      0.603824
  C       1.631656      3.292698     -0.313256
  H       2.519201      2.770117      0.057860
  H       1.888796      3.767627     -1.258391
  H       1.370856      4.074947      0.408446
  O       0.567534      2.437064     -0.542634
27
Coordinates from ORCA-job 28 Relaxed Surface Scan Step 7
  C      -2.126101      1.120260      1.610145
  H      -1.871335      0.139953      2.016307
  H      -1.826960      1.847392      2.370720
  C      -1.337739      1.405408      0.320526
  H      -1.725712      2.346859     -0.077496
  C       0.153423      1.725171      0.562137
  H       0.205085      2.359109      1.455180
  C       1.128904      0.557393      0.752542
  H       2.131396      0.992530      0.744560
  H       1.083816     -0.087641     -0.126412
  C       0.974628     -0.273636      2.023262
  H       0.073826     -0.886252      2.014111
  H       1.823461     -0.950796      2.133903
  H       0.939801      0.356322      2.915567
  C      -1.542729      0.344898     -0.764083
  H      -2.582268      0.312318     -1.091847
  H      -0.930868      0.571230     -1.637364
  H      -1.278941     -0.655296     -0.411569
  C      -3.642512      1.201069      1.442214
  H      -4.143612      1.069124      2.403264
  H      -3.944905      2.171612      1.041516
  H      -4.023202      0.431110      0.769614
  C       1.462480      3.511228     -0.324409
  H       2.398521      3.176480      0.133918
  H       1.699789      3.965913     -1.284684
  H       1.022182      4.278936      0.321700
  O       0.579654      2.469252     -0.554281
27
Coordinates from ORCA-job 28 Relaxed Surface Scan Step 8
  C      -2.156512      1.333203      1.595208
  H      -1.803554      0.533539      2.250568
  H      -1.980261      2.260867      2.147418
  C      -1.335804      1.403222      0.294300
  H      -1.682634      2.292249     -0.236811
  C       0.157426      1.717472      0.556768
  H       0.206480      2.256233      1.508521
  C       1.144475      0.549577      0.651864
  H       2.143017      0.997043      0.654191
  H       1.091220     -0.044179     -0.261590
  C       1.002562     -0.349517      1.876244
  H       0.065542     -0.906978      1.875123
  H       1.813832     -1.078949      1.908214
  H       1.043559      0.227378      2.803541
  C      -1.554268      0.220678     -0.652588
  H      -2.589252      0.178415     -0.992499
  H      -0.927567      0.324116     -1.539149
  H      -1.323276     -0.738310     -0.183255
  C      -3.661865      1.177859      1.391833
  H      -4.188195      1.268027      2.344123
  H      -4.052575      1.949245      0.723437
  H      -3.922768      0.207300      0.967578
  C       1.472515      3.572883     -0.164988
  H       2.410567      3.190266      0.249503
  H       1.704341      4.116243     -1.079434
  H       1.044103      4.277620      0.556499
  O       0.578974      2.564442     -0.485578
27
Coordinates from ORCA-job 28 Relaxed Surface Scan Step 9
  C      -2.201720      1.480058      1.522711
  H      -1.861433      0.798033      2.307768
  H      -2.034982      2.485061      1.920871
  C      -1.339334      1.340257      0.253714
  H      -1.650699      2.141775     -0.417273
  C       0.149251      1.682609      0.550350
  H       0.185336      2.112869      1.555953
  C       1.176650      0.545909      0.535337
  H       2.161124      1.021331      0.503045
  H       1.093168     -0.022281     -0.391398
  C       1.121932     -0.386351      1.742744
  H       0.168522     -0.909539      1.822606
  H       1.905204     -1.143841      1.680019
  H       1.272721      0.165043      2.674176
  C      -1.566635      0.033674     -0.511807
  H      -2.603445     -0.042322     -0.839489
  H      -0.947766     -0.001535     -1.408852
  H      -1.346608     -0.852955      0.085688
  C      -3.702067      1.292422      1.313602
  H      -4.248989      1.541957      2.225006
  H      -4.074230      1.941117      0.516601
  H      -3.958389      0.264654      1.052962
  C       1.431690      3.627989      0.035314
  H       2.392040      3.207178      0.349094
  H       1.615372      4.298520     -0.802426
  H       1.030339      4.216582      0.867947
  O       0.533032      2.661729     -0.385220
27
Coordinates from ORCA-job 28 Relaxed Surface Scan Step 10
  C      -2.246235      1.604659      1.427818
  H      -2.004978      0.963771      2.283967
  H      -1.999855      2.625104      1.733582
  C      -1.336178      1.231788      0.245029
  H      -1.599408      1.889914     -0.583930
  C       0.138567      1.625700      0.569639
  H       0.177319      1.952443      1.615669
  C       1.226231      0.557260      0.396846
  H       2.182876      1.076846      0.327700
  H       1.103558      0.044892     -0.557447
  C       1.322771     -0.447794      1.543063
  H       0.406519     -1.020326      1.682693
  H       2.128335     -1.161446      1.360929
  H       1.540543      0.057706      2.487226
  C      -1.584375     -0.199544     -0.243112
  H      -2.606846     -0.294695     -0.608526
  H      -0.931197     -0.464214     -1.073659
  H      -1.452605     -0.944522      0.542926
  C      -3.745776      1.536014      1.151317
  H      -4.309768      1.924342      2.001765
  H      -4.012324      2.134865      0.276844
  H      -4.089759      0.516209      0.974011
  C       1.310168      3.681724      0.264936
  H       2.307976      3.271715      0.449069
  H       1.403788      4.477880     -0.471625
  H       0.944008      4.117818      1.201220
  O       0.426722      2.741835     -0.238909
27
Coordinates from ORCA-job 28 Relaxed Surface Scan Step 11
  C      -2.282966      1.717695      1.339487
  H      -2.172236      1.128273      2.258980
  H      -1.959995      2.734868      1.573141
  C      -1.327385      1.128952      0.289967
  H      -1.534458      1.615458     -0.666220
  C       0.126749      1.567410      0.617335
  H       0.196257      1.801615      1.688093
  C       1.248064      0.578320      0.265857
  H       2.175763      1.139663      0.168645
  H       1.063804      0.150446     -0.721275
  C       1.497232     -0.521102      1.297527
  H       0.644117     -1.182542      1.435209
  H       2.343561     -1.140367      0.994316
  H       1.740963     -0.090243      2.271986
  C      -1.586310     -0.370208      0.106084
  H      -2.590744     -0.524617     -0.288305
  H      -0.898420     -0.830140     -0.601832
  H      -1.523246     -0.919149      1.047493
  C      -3.754468      1.760954      0.936329
  H      -4.350726      2.250140      1.709281
  H      -3.889629      2.323507      0.009435
  H      -4.174521      0.765403      0.786004
  C       1.173730      3.705888      0.472859
  H       2.199470      3.332217      0.548977
  H       1.180383      4.580708     -0.175042
  H       0.850480      4.017961      1.472346
  O       0.304612      2.778833     -0.077638
27
Coordinates from ORCA-job 28 Relaxed Surface Scan Step 12
  C      -2.322586      1.805266      1.254046
  H      -2.321157      1.303159      2.229719
  H      -1.955914      2.819784      1.416966
  C      -1.336559      1.063170      0.337015
  H      -1.502427      1.406353     -0.688815
  C       0.106746      1.510581      0.656003
  H       0.213211      1.632298      1.742558
  C       1.225279      0.584113      0.148752
  H       2.104789      1.194950     -0.049296
  H       0.939933      0.166511     -0.819504
  C       1.648549     -0.525208      1.110609
  H       0.844445     -1.222292      1.339895
  H       2.470668     -1.103930      0.685102
  H       1.999928     -0.105510      2.056605
  C      -1.592919     -0.445564      0.382920
  H      -2.621823     -0.659553      0.093511
  H      -0.951083     -0.999978     -0.300562
  H      -1.449813     -0.850075      1.387492
  C      -3.753813      1.890844      0.729719
  H      -4.384343      2.455380      1.419717
  H      -3.785271      2.398773     -0.236972
  H      -4.211306      0.908128      0.604058
  C       1.099199      3.676279      0.677417
  H       2.130586      3.310348      0.697074
  H       1.079497      4.601703      0.104454
  H       0.798017      3.899482      1.707085
  O       0.228248      2.784934      0.073472
27
Coordinates from ORCA-job 28 Relaxed Surface Scan Step 13
  C      -2.351378      1.909823      1.139398
  H      -2.349334      1.581540      2.185471
  H      -2.001245      2.941057      1.133155
  C      -1.349351      1.050716      0.350008
  H      -1.478591      1.274755     -0.714257
  C       0.092839      1.479791      0.678071
  H       0.215664      1.485785      1.770043
  C       1.195164      0.597255      0.060874
  H       2.024348      1.250386     -0.211409
  H       0.837745      0.175201     -0.881658
  C       1.740288     -0.506001      0.965986
  H       0.976533     -1.221728      1.268058
  H       2.529033     -1.063819      0.457436
  H       2.172638     -0.083853      1.876652
  C      -1.613040     -0.442000      0.563400
  H      -2.645738     -0.687743      0.317408
  H      -0.981190     -1.069276     -0.064336
  H      -1.448885     -0.731011      1.604918
  C      -3.781847      1.885158      0.605186
  H      -4.418133      2.558533      1.183135
  H      -3.816361      2.213409     -0.436409
  H      -4.232636      0.892771      0.655973
  C       1.109117      3.621363      0.877451
  H       2.133399      3.235244      0.860163
  H       1.104408      4.590945      0.382512
  H       0.817042      3.763996      1.923821
  O       0.219594      2.797650      0.207992
27
Coordinates from ORCA-job 28 Relaxed Surface Scan Step 14
  C      -2.372176      2.017359      0.988565
  H      -2.290613      1.922404      2.077636
  H      -2.080024      3.037719      0.749930
  C      -1.363958      1.067575      0.320606
  H      -1.451608      1.200782     -0.763539
  C       0.077596      1.462664      0.687713
  H       0.187357      1.360071      1.776731
  C       1.166870      0.612419     -0.001652
  H       1.942156      1.297270     -0.347654
  H       0.758404      0.156336     -0.906630
  C       1.814128     -0.456077      0.876794
  H       1.089698     -1.178464      1.254454
  H       2.570758     -1.010625      0.318298
  H       2.307773     -0.005759      1.741533
  C      -1.655275     -0.400440      0.644199
  H      -2.666179     -0.673340      0.344034
  H      -0.979079     -1.077589      0.123449
  H      -1.566683     -0.595608      1.716854
  C      -3.827900      1.817680      0.571669
  H      -4.455310      2.604509      0.995208
  H      -3.936672      1.861509     -0.515131
  H      -4.236574      0.863873      0.908420
  C       1.167138      3.539043      1.067508
  H       2.179138      3.130898      0.977503
  H       1.176051      4.555373      0.677633
  H       0.908917      3.576936      2.131569
  O       0.236149      2.813424      0.343340
27
Coordinates from ORCA-job 28 Relaxed Surface Scan Step 15
  C      -2.424863      2.097934      0.839310
  H      -2.336387      2.159264      1.929823
  H      -2.123947      3.072483      0.461998
  C      -1.431155      1.052946      0.308537
  H      -1.463481      1.091087     -0.786358
  C       0.011814      1.377567      0.735526
  H       0.100109      1.125879      1.802604
  C       1.072361      0.578643     -0.059058
  H       1.599888      1.292956     -0.694750
  H       0.581110     -0.114670     -0.743395
  C       2.071105     -0.198978      0.794878
  H       1.568262     -0.951443      1.407064
  H       2.800644     -0.717566      0.169605
  H       2.622758      0.456644      1.471995
  C      -1.797661     -0.369691      0.746455
  H      -2.746266     -0.688314      0.315429
  H      -1.048084     -1.099685      0.438705
  H      -1.890677     -0.430344      1.834502
  C      -3.883431      1.850691      0.460146
  H      -4.504118      2.693425      0.771149
  H      -3.998309      1.741347     -0.621668
  H      -4.295071      0.955923      0.929618
  C       1.282131      3.313891      1.273584
  H       2.249650      2.964669      0.899888
  H       1.237012      4.393036      1.137811
  H       1.230890      3.096658      2.346409
  O       0.215800      2.755591      0.589235
27
Coordinates from ORCA-job 28 Relaxed Surface Scan Step 16
  C      -2.413043      2.153183      0.687560
  H      -2.302784      2.403762      1.747105
  H      -2.086499      3.041645      0.150796
  C      -1.457293      1.005262      0.325677
  H      -1.453510      0.915189     -0.766290
  C      -0.010032      1.289982      0.784905
  H       0.076544      0.931001      1.821557
  C       1.030934      0.564620     -0.092415
  H       1.369905      1.297159     -0.831332
  H       0.541873     -0.231425     -0.656342
  C       2.220099     -0.043572      0.649398
  H       1.889320     -0.812377      1.352020
  H       2.912355     -0.515612     -0.050735
  H       2.782998      0.697450      1.217879
  C      -1.904722     -0.348237      0.889782
  H      -2.834111     -0.688903      0.433950
  H      -1.157052     -1.123369      0.709605
  H      -2.064203     -0.289399      1.970027
  C      -3.882264      1.892196      0.364955
  H      -4.473980      2.793800      0.535768
  H      -4.015164      1.607243     -0.682410
  H      -4.313246      1.101069      0.980658
  C       1.289586      3.178246      1.465870
  H       2.237372      2.978256      0.958120
  H       1.166731      4.257846      1.536253
  H       1.349963      2.770497      2.481117
  O       0.200303      2.674434      0.775567
27
Coordinates from ORCA-job 28 Relaxed Surface Scan Step 17
  C      -2.177564      2.181846      0.507726
  H      -2.107176      2.633762      1.500917
  H      -1.684725      2.879873     -0.167944
  C      -1.402885      0.856307      0.475216
  H      -1.507130      0.462568     -0.541237
  C       0.123537      1.030852      0.746491
  H       0.352450      0.566111      1.712624
  C       0.957576      0.342538     -0.329796
  H       0.771115      0.871424     -1.269359
  H       0.591246     -0.679266     -0.462076
  C       2.453332      0.322779     -0.039597
  H       2.673171     -0.224735      0.880919
  H       3.001425     -0.162390     -0.849616
  H       2.841456      1.335618      0.068089
  C      -1.982024     -0.204020      1.417882
  H      -2.998403     -0.485263      1.141905
  H      -1.379698     -1.115473      1.396882
  H      -2.001773      0.154407      2.451127
  C      -3.647820      2.064088      0.111994
  H      -4.106743      3.053068      0.052984
  H      -3.758598      1.591945     -0.867793
  H      -4.228285      1.480765      0.828462
  C       0.788729      2.918534      2.044592
  H       1.626641      2.415143      2.538509
  H       1.052472      3.965302      1.902713
  H      -0.077993      2.870252      2.710635
  O       0.527748      2.373909      0.796795
27
Coordinates from ORCA-job 28 Relaxed Surface Scan Step 18
  C      -2.097053      2.144707      0.384838
  H      -2.133170      2.708284      1.321300
  H      -1.501598      2.744452     -0.303418
  C      -1.387320      0.801597      0.617694
  H      -1.547552      0.212706     -0.289377
  C       0.159368      0.944512      0.779119
  H       0.473752      0.343536      1.639917
  C       0.903264      0.411771     -0.443881
  H       0.562879      0.949938     -1.332727
  H       0.606842     -0.631267     -0.586438
  C       2.420319      0.503211     -0.334468
  H       2.788790     -0.047910      0.535041
  H       2.898767      0.079504     -1.219752
  H       2.742736      1.538912     -0.236682
  C      -1.997268      0.009078      1.779376
  H      -3.058757     -0.186856      1.624959
  H      -1.503755     -0.958966      1.893081
  H      -1.892838      0.545562      2.726162
  C      -3.513433      2.014167     -0.172089
  H      -3.942103      3.000191     -0.362484
  H      -3.518535      1.465778     -1.117570
  H      -4.185785      1.496630      0.514128
  C       0.682946      2.688050      2.315377
  H       1.406071      2.084969      2.874977
  H       1.029773      3.719930      2.305786
  H      -0.272828      2.653328      2.846096
  O       0.576568      2.264129      1.000076
27
Coordinates from ORCA-job 28 Relaxed Surface Scan Step 19
  C      -2.040455      2.083877      0.254496
  H      -2.067665      2.771564      1.103863
  H      -1.415756      2.567393     -0.497681
  C      -1.378718      0.766461      0.689688
  H      -1.564650      0.039901     -0.106199
  C       0.166532      0.892441      0.796076
  H       0.517202      0.194288      1.565971
  C       0.858773      0.510870     -0.512145
  H       0.462883      1.121991     -1.327250
  H       0.585033     -0.521959     -0.743786
  C       2.376844      0.637740     -0.466970
  H       2.801846      0.022913      0.331063
  H       2.820263      0.307852     -1.408682
  H       2.678040      1.669244     -0.291318
  C      -2.006865      0.190534      1.964947
  H      -3.074851      0.009511      1.838291
  H      -1.547439     -0.764536      2.229343
  H      -1.887241      0.862229      2.817319
  C      -3.451319      1.922517     -0.307792
  H      -3.851659      2.887899     -0.624017
  H      -3.457577      1.262699     -1.179117
  H      -4.146077      1.508755      0.425073
  C       0.659580      2.513948      2.488435
  H       1.217516      1.766665      3.062719
  H       1.179900      3.467002      2.568712
  H      -0.328118      2.627333      2.943085
  O       0.594061      2.180812      1.144916
27
Coordinates from ORCA-job 28 Relaxed Surface Scan Step 20
  C      -2.118619      1.994529      0.029598
  H      -2.147081      2.813995      0.750424
  H      -1.481966      2.339580     -0.786202
  C      -1.479403      0.768271      0.704364
  H      -1.653876     -0.099778      0.060043
  C       0.050143      0.903005      0.844421
  H       0.386335      0.130735      1.545525
  C       0.798726      0.674303     -0.469851
  H       0.441774      1.374221     -1.226958
  H       0.544993     -0.326493     -0.830503
  C       2.313779      0.801446     -0.351458
  H       2.721315      0.092721      0.374334
  H       2.794313      0.600888     -1.310901
  H       2.598581      1.806565     -0.040196
  C      -2.126030      0.479374      2.062896
  H      -3.203535      0.337453      1.974912
  H      -1.715150     -0.427053      2.513390
  H      -1.958071      1.306514      2.755777
  C      -3.519760      1.746811     -0.526323
  H      -3.905689      2.646523     -1.009969
  H      -3.515328      0.948380     -1.272844
  H      -4.232260      1.467400      0.251571
  C       1.044276      2.215151      2.584110
  H       2.029542      1.742709      2.526660
  H       1.182932      3.263526      2.843439
  H       0.481124      1.733578      3.389363
  O       0.369018      2.165591      1.373420
27
Coordinates from ORCA-job 28 Relaxed Surface Scan Step 21
  C      -2.101262      1.882686     -0.143670
  H      -1.934102      2.825509      0.381265
  H      -1.587848      1.973995     -1.101957
  C      -1.456111      0.746525      0.666446
  H      -1.604713     -0.188345      0.113537
  C       0.068624      0.918010      0.814905
  H       0.420822      0.098027      1.451702
  C       0.836325      0.835142     -0.504348
  H       0.557198      1.679502     -1.135261
  H       0.524620     -0.071093     -1.031361
  C       2.351984      0.829360     -0.332738
  H       2.685130     -0.014279      0.277500
  H       2.850786      0.752079     -1.300699
  H       2.695049      1.748299      0.143438
  C      -2.110570      0.578541      2.041582
  H      -3.163023      0.308665      1.955835
  H      -1.622177     -0.212164      2.615671
  H      -2.049509      1.502419      2.619992
  C      -3.592353      1.705487     -0.425956
  H      -3.949636      2.494227     -1.091059
  H      -3.795337      0.747932     -0.913144
  H      -4.196380      1.751050      0.481093
  C       0.995911      2.109812      2.676124
  H       1.979650      1.634456      2.615404
  H       1.133761      3.138795      3.004556
  H       0.408230      1.583460      3.434042
  O       0.355015      2.141846      1.446143
27
Coordinates from ORCA-job 28 Relaxed Surface Scan Step 22
  C      -2.074997      1.738505     -0.287477
  H      -1.767502      2.743738      0.011310
  H      -1.658758      1.581857     -1.283901
  C      -1.447114      0.713451      0.673437
  H      -1.586868     -0.283112      0.237378
  C       0.075822      0.907949      0.823442
  H       0.454759      0.048026      1.389851
  C       0.829137      0.969016     -0.503504
  H       0.556923      1.900670     -1.002017
  H       0.492732      0.148613     -1.144013
  C       2.345797      0.911813     -0.352966
  H       2.667473     -0.012299      0.134507
  H       2.834065      0.956427     -1.328320
  H       2.712318      1.751853      0.237913
  C      -2.118261      0.697308      2.049885
  H      -3.160882      0.387393      1.981854
  H      -1.618405     -0.007194      2.718518
  H      -2.088655      1.683387      2.515714
  C      -3.596752      1.678012     -0.404335
  H      -3.943054      2.349298     -1.192705
  H      -3.938241      0.670564     -0.657346
  H      -4.096758      1.976734      0.517680
  C       0.986705      1.983124      2.764843
  H       1.971959      1.516011      2.671813
  H       1.122217      2.990379      3.155777
  H       0.403702      1.409356      3.490939
  O       0.342723      2.089065      1.540763
27
Coordinates from ORCA-job 28 Relaxed Surface Scan Step 23
  C      -2.075376      1.592514     -0.400537
  H      -1.712360      2.620136     -0.320101
  H      -1.706037      1.232017     -1.361905
  C      -1.458089      0.721899      0.712345
  H      -1.622509     -0.323878      0.430227
  C       0.076658      0.898986      0.844196
  H       0.468714     -0.015652      1.308210
  C       0.802705      1.105245     -0.482591
  H       0.514118      2.091424     -0.852893
  H       0.458228      0.364311     -1.208674
  C       2.322196      1.038442     -0.370461
  H       2.655915      0.066344      0.002179
  H       2.788615      1.194453     -1.345080
  H       2.700604      1.807906      0.302872