24
Coordinates from ORCA-job 29 Relaxed Surface Scan Step 1
  C      68.213517    -15.972073     -2.287702
  H      67.541129    -16.787320     -2.560307
  H      68.481970    -16.128037     -1.239139
  C      67.429595    -14.653054     -2.366590
  H      68.143417    -13.853303     -2.124212
  C      66.906004    -14.340523     -3.800106
  H      67.682073    -13.775054     -4.314416
  C      66.337467    -14.662464     -1.290366
  H      65.819226    -13.707454     -1.209558
  H      65.591092    -15.434447     -1.491538
  H      66.775749    -14.875409     -0.314021
  O      66.684196    -15.534501     -4.505756
  C      67.042690    -15.549861     -5.846782
  H      66.868028    -16.554938     -6.226520
  H      66.446982    -14.851436     -6.443596
  H      68.099122    -15.303398     -5.989438
  C      69.494154    -16.034609     -3.113249
  H      70.017211    -16.977297     -2.939180
  H      69.301681    -15.963511     -4.182169
  H      70.178523    -15.226348     -2.840827
  C      65.653662    -13.470756     -3.854634
  H      65.801405    -12.529660     -3.321832
  H      65.414325    -13.229666     -4.891531
  H      64.794737    -13.984939     -3.425663
24
Coordinates from ORCA-job 29 Relaxed Surface Scan Step 2
  C      68.264873    -15.944920     -2.286901
  H      67.642942    -16.792857     -2.579772
  H      68.534376    -16.103878     -1.239035
  C      67.406344    -14.672759     -2.351928
  H      68.053230    -13.841468     -2.041106
  C      66.937340    -14.344232     -3.790965
  H      67.775241    -13.884888     -4.318088
  C      66.253660    -14.794252     -1.349262
  H      65.700160    -13.862412     -1.234517
  H      65.549039    -15.569673     -1.657929
  H      66.635998    -15.066328     -0.363982
  O      66.587412    -15.536053     -4.445419
  C      66.904776    -15.643026     -5.791803
  H      66.624927    -16.642115     -6.121157
  H      66.361507    -14.917197     -6.405698
  H      67.975414    -15.506301     -5.971099
  C      69.550119    -15.921079     -3.107855
  H      70.133744    -16.827189     -2.932548
  H      69.357059    -15.863515     -4.178277
  H      70.179076    -15.069099     -2.835337
  C      65.789838    -13.341970     -3.872079
  H      66.030548    -12.426373     -3.327893
  H      65.600352    -13.069333     -4.911598
  H      64.869982    -13.759141     -3.464881
24
Coordinates from ORCA-job 29 Relaxed Surface Scan Step 3
  C      68.313214    -15.922305     -2.269910
  H      67.746660    -16.801086     -2.583812
  H      68.569856    -16.078594     -1.218374
  C      67.388268    -14.697422     -2.342114
  H      67.963423    -13.837416     -1.977162
  C      66.973130    -14.361622     -3.788545
  H      67.860835    -14.003933     -4.317965
  C      66.189605    -14.908518     -1.411486
  H      65.591291    -14.004836     -1.294149
  H      65.539014    -15.698277     -1.791871
  H      66.527996    -15.203426     -0.416533
  O      66.518719    -15.539729     -4.400677
  C      66.746114    -15.687015     -5.760130
  H      66.385734    -16.671513     -6.053093
  H      66.214249    -14.938467     -6.356049
  H      67.811570    -15.622207     -6.003371
  C      69.609362    -15.826209     -3.069223
  H      70.245681    -16.691050     -2.870803
  H      69.431036    -15.797754     -4.144275
  H      70.178733    -14.931984     -2.801161
  C      65.926217    -13.256870     -3.900771
  H      66.243734    -12.364412     -3.357463
  H      65.778829    -12.973191     -4.944086
  H      64.964684    -13.582221     -3.506111
24
Coordinates from ORCA-job 29 Relaxed Surface Scan Step 4
  C      68.357431    -15.911430     -2.230652
  H      67.847968    -16.817148     -2.564961
  H      68.580114    -16.056634     -1.169827
  C      67.382515    -14.727965     -2.340293
  H      67.895322    -13.842425     -1.946442
  C      67.022509    -14.400806     -3.799112
  H      67.948185    -14.126340     -4.316776
  C      66.149624    -14.992144     -1.470329
  H      65.503829    -14.117125     -1.392035
  H      65.558470    -15.813915     -1.877037
  H      66.451177    -15.262897     -0.456711
  O      66.506030    -15.565953     -4.382436
  C      66.554228    -15.672116     -5.763056
  H      66.230033    -16.676175     -6.030899
  H      65.893989    -14.957052     -6.262763
  H      67.570520    -15.523892     -6.144648
  C      69.676615    -15.761434     -2.983846
  H      70.351373    -16.584289     -2.739406
  H      69.536304    -15.771397     -4.065484
  H      70.185939    -14.830353     -2.720418
  C      66.060155    -13.224657     -3.949177
  H      66.426254    -12.356683     -3.397446
  H      65.962776    -12.929605     -4.994923
  H      65.066598    -13.477623     -3.580457
24
Coordinates from ORCA-job 29 Relaxed Surface Scan Step 5
  C      68.400391    -15.917769     -2.229854
  H      67.980354    -16.823567     -2.671529
  H      68.522632    -16.125508     -1.163333
  C      67.381243    -14.774336     -2.368392
  H      67.844149    -13.867243     -1.963093
  C      67.047138    -14.461031     -3.835482
  H      67.993442    -14.305162     -4.365698
  C      66.132539    -15.078783     -1.535068
  H      65.426492    -14.247792     -1.532885
  H      65.615691    -15.958405     -1.919147
  H      66.407832    -15.272275     -0.496524
  O      66.414508    -15.586798     -4.378638
  C      66.304258    -15.659966     -5.758100
  H      65.960836    -16.661532     -6.011170
  H      65.584177    -14.941988     -6.160502
  H      67.268769    -15.491360     -6.250402
  C      69.781553    -15.653692     -2.826005
  H      70.467555    -16.464338     -2.572182
  H      69.758639    -15.583457     -3.914460
  H      70.212868    -14.725912     -2.440602
  C      66.210033    -13.195025     -4.011320
  H      66.671137    -12.357709     -3.484763
  H      66.132540    -12.914454     -5.062518
  H      65.199177    -13.331956     -3.627469
24
Coordinates from ORCA-job 29 Relaxed Surface Scan Step 6
  C      68.442789    -15.929380     -2.280803
  H      68.159833    -16.778265     -2.907690
  H      68.434210    -16.297107     -1.251401
  C      67.376484    -14.827690     -2.414633
  H      67.799519    -13.903886     -2.005249
  C      67.039016    -14.531548     -3.886679
  H      67.976670    -14.545126     -4.453898
  C      66.131320    -15.174119     -1.593245
  H      65.355099    -14.413214     -1.682201
  H      65.704729    -16.122727     -1.917146
  H      66.388876    -15.257212     -0.535423
  O      66.230984    -15.572550     -4.361541
  C      66.045823    -15.667085     -5.732014
  H      65.568158    -16.623703     -5.936764
  H      65.402059    -14.875268     -6.124514
  H      66.998863    -15.634887     -6.272163
  C      69.867239    -15.493604     -2.618679
  H      70.566470    -16.321383     -2.483838
  H      69.965949    -15.154203     -3.651445
  H      70.194837    -14.677177     -1.970097
  C      66.388355    -13.164485     -4.086090
  H      67.026101    -12.378624     -3.678512
  H      66.236860    -12.943633     -5.143211
  H      65.417713    -13.113180     -3.591899
24
Coordinates from ORCA-job 29 Relaxed Surface Scan Step 7
  C      68.490026    -15.915352     -2.261174
  H      68.314065    -16.763786     -2.927543
  H      68.452004    -16.316036     -1.244888
  C      67.359728    -14.884149     -2.433009
  H      67.716719    -13.936418     -2.017079
  C      67.043731    -14.611852     -3.918084
  H      67.961686    -14.776129     -4.492734
  C      66.112263    -15.284896     -1.640995
  H      65.292779    -14.580678     -1.790459
  H      65.757614    -16.269965     -1.940798
  H      66.338531    -15.309786     -0.572936
  O      66.104492    -15.555302     -4.354005
  C      65.849156    -15.616311     -5.715740
  H      65.284645    -16.527564     -5.906089
  H      65.255942    -14.769655     -6.070549
  H      66.775269    -15.656782     -6.300378
  C      69.891782    -15.360977     -2.507089
  H      70.646593    -16.139854     -2.381015
  H      70.006816    -14.959037     -3.515920
  H      70.125921    -14.557645     -1.804185
  C      66.571216    -13.178931     -4.153205
  H      67.330825    -12.472918     -3.814756
  H      66.388427    -12.978142     -5.209045
  H      65.647723    -12.977891     -3.607460
24
Coordinates from ORCA-job 29 Relaxed Surface Scan Step 8
  C      68.524518    -15.865986     -2.212094
  H      68.426721    -16.755236     -2.841522
  H      68.517567    -16.223822     -1.179149
  C      67.311647    -14.942884     -2.424360
  H      67.569855    -13.976163     -1.981194
  C      67.028344    -14.680840     -3.926508
  H      67.896885    -15.020171     -4.500777
  C      66.079349    -15.455655     -1.675531
  H      65.212591    -14.816085     -1.843352
  H      65.809941    -16.460696     -1.997335
  H      66.279789    -15.478424     -0.602161
  O      65.937887    -15.461126     -4.333436
  C      65.691962    -15.546609     -5.695425
  H      64.970098    -16.346562     -5.851316
  H      65.270783    -14.625222     -6.105874
  H      66.601529    -15.789067     -6.256684
  C      69.874072    -15.204054     -2.483028
  H      70.693182    -15.907728     -2.321539
  H      69.957770    -14.839744     -3.509255
  H      70.034443    -14.352338     -1.817398
  C      66.798516    -13.198370     -4.206414
  H      67.670316    -12.617910     -3.900992
  H      66.627920    -12.999954     -5.264823
  H      65.932270    -12.835413     -3.648968
24
Coordinates from ORCA-job 29 Relaxed Surface Scan Step 9
  C      68.533368    -15.733334     -2.161183
  H      68.498871    -16.688905     -2.695914
  H      68.595723    -15.987129     -1.099728
  C      67.208902    -14.988389     -2.398194
  H      67.277650    -14.031808     -1.869856
  C      66.977842    -14.677202     -3.905778
  H      67.714871    -15.239771     -4.490157
  C      66.052745    -15.763790     -1.761924
  H      65.107504    -15.236722     -1.872620
  H      65.932932    -16.747869     -2.217084
  H      66.245770    -15.903334     -0.695964
  O      65.700627    -15.107723     -4.293246
  C      65.536748    -15.496617     -5.612230
  H      64.509344    -15.835217     -5.733671
  H      65.711159    -14.678078     -6.317502
  H      66.206606    -16.322765     -5.875707
  C      69.801670    -14.975841     -2.546966
  H      70.689124    -15.560508     -2.296922
  H      69.849608    -14.758915     -3.615698
  H      69.872099    -14.025462     -2.012183
  C      67.144985    -13.193798     -4.219490
  H      68.132243    -12.837622     -3.923045
  H      67.023508    -12.994326     -5.285357
  H      66.394056    -12.614933     -3.678715
24
Coordinates from ORCA-job 29 Relaxed Surface Scan Step 10
  C      68.549945    -15.640663     -2.095293
  H      68.596700    -16.628839     -2.565640
  H      68.593973    -15.822817     -1.018570
  C      67.174325    -15.019778     -2.402828
  H      67.118105    -14.058688     -1.879859
  C      66.971049    -14.746995     -3.916657
  H      67.608071    -15.444408     -4.475917
  C      66.080575    -15.917201     -1.816362
  H      65.096030    -15.468908     -1.921481
  H      66.054396    -16.889024     -2.313940
  H      66.270311    -16.088479     -0.754562
  O      65.636420    -15.002864     -4.263386
  C      65.377249    -15.358344     -5.576730
  H      64.317655    -15.595752     -5.653179
  H      65.597118    -14.552478     -6.283413
  H      65.951994    -16.241943     -5.876009
  C      69.790239    -14.841845     -2.488952
  H      70.689965    -15.345513     -2.130007
  H      69.893162    -14.733538     -3.569645
  H      69.778167    -13.840854     -2.051241
  C      67.331478    -13.315707     -4.308213
  H      68.343956    -13.054121     -4.007205
  H      67.257361    -13.166710     -5.386461
  H      66.639709    -12.624588     -3.823585
24
Coordinates from ORCA-job 29 Relaxed Surface Scan Step 11
  C      68.572700    -15.581575     -2.069914
  H      68.716934    -16.552395     -2.555493
  H      68.565429    -15.788241     -0.997239
  C      67.167606    -15.054379     -2.428566
  H      67.029345    -14.088753     -1.928995
  C      66.958921    -14.834020     -3.945066
  H      67.478501    -15.645150     -4.474470
  C      66.126470    -16.020446     -1.851959
  H      65.116935    -15.638225     -1.972754
  H      66.174260    -16.993781     -2.347341
  H      66.310609    -16.179522     -0.787567
  O      65.588736    -14.936307     -4.228464
  C      65.222938    -15.203567     -5.537757
  H      64.151540    -15.396115     -5.549027
  H      65.424111    -14.367046     -6.212810
  H      65.736939    -16.089587     -5.927063
  C      69.789226    -14.703379     -2.359202
  H      70.672347    -15.127155     -1.876878
  H      70.013706    -14.630420     -3.423405
  H      69.658359    -13.690519     -1.971271
  C      67.471671    -13.482077     -4.438600
  H      68.516334    -13.317271     -4.192765
  H      67.373387    -13.393807     -5.521172
  H      66.880950    -12.686320     -3.981356
24
Coordinates from ORCA-job 29 Relaxed Surface Scan Step 12
  C      68.636202    -15.535257     -2.240033
  H      69.003830    -16.189778     -3.037869
  H      68.575033    -16.176622     -1.358259
  C      67.204963    -15.063477     -2.580868
  H      67.016231    -14.115217     -2.065813
  C      66.977826    -14.803751     -4.083000
  H      67.216890    -15.723487     -4.628813
  C      66.188131    -16.084180     -2.058502
  H      65.167261    -15.767408     -2.258021
  H      66.341349    -17.063650     -2.522362
  H      66.297609    -16.213344     -0.980104
  O      65.620823    -14.490978     -4.275610
  C      64.940543    -15.198271     -5.254040
  H      63.921997    -14.815912     -5.296091
  H      65.393708    -15.072950     -6.243667
  H      64.899240    -16.269240     -5.029720
  C      69.661340    -14.445430     -1.928587
  H      70.621156    -14.890997     -1.658498
  H      69.838323    -13.770200     -2.764017
  H      69.331797    -13.839035     -1.081636
  C      67.814604    -13.682504     -4.685800
  H      68.875240    -13.929140     -4.706534
  H      67.495043    -13.504402     -5.713686
  H      67.678814    -12.754828     -4.127606
24
Coordinates from ORCA-job 29 Relaxed Surface Scan Step 13
  C      68.671428    -15.501536     -2.245512
  H      69.086326    -16.078193     -3.078894
  H      68.661960    -16.193442     -1.400678
  C      67.211667    -15.103646     -2.561820
  H      66.996008    -14.144080     -2.080144
  C      66.945257    -14.905848     -4.063957
  H      67.110244    -15.868644     -4.564424
  C      66.240799    -16.139083     -1.986095
  H      65.207071    -15.868850     -2.189150
  H      66.427191    -17.129439     -2.413058
  H      66.365023    -16.220316     -0.904375
  O      65.597972    -14.537750     -4.209879
  C      64.920319    -15.036517     -5.310341
  H      63.909802    -14.632057     -5.291878
  H      65.387076    -14.743854     -6.256553
  H      64.856513    -16.129808     -5.284741
  C      69.611758    -14.352694     -1.883806
  H      70.611145    -14.729532     -1.655877
  H      69.711379    -13.619751     -2.683641
  H      69.250106    -13.824054     -0.998736
  C      67.823624    -13.861173     -4.743094
  H      68.872668    -14.155065     -4.753667
  H      67.510551    -13.726982     -5.779404
  H      67.732068    -12.897741     -4.239410
24
Coordinates from ORCA-job 29 Relaxed Surface Scan Step 14
  C      68.702244    -15.473060     -2.263439
  H      69.155557    -15.952371     -3.136562
  H      68.747258    -16.220850     -1.468998
  C      67.218727    -15.138084     -2.551196
  H      66.989022    -14.161296     -2.114501
  C      66.910815    -15.023205     -4.052733
  H      67.014667    -16.028154     -4.488473
  C      66.287587    -16.161777     -1.895808
  H      65.243501    -15.922006     -2.085195
  H      66.482681    -17.168643     -2.277345
  H      66.442742    -16.184481     -0.815077
  O      65.572920    -14.618801     -4.166115
  C      64.923466    -14.865619     -5.365124
  H      63.874889    -14.604541     -5.233256
  H      65.319512    -14.268704     -6.191401
  H      64.983112    -15.922883     -5.646667
  C      69.559754    -14.282866     -1.836557
  H      70.589374    -14.592682     -1.644777
  H      69.585986    -13.498725     -2.594081
  H      69.172559    -13.836875     -0.917446
  C      67.816466    -14.055968     -4.809846
  H      68.861627    -14.357862     -4.767005
  H      67.539476    -14.009533     -5.863199
  H      67.724014    -13.051069     -4.394334
24
Coordinates from ORCA-job 29 Relaxed Surface Scan Step 15
  C      68.731724    -15.429925     -2.284931
  H      69.223939    -15.792538     -3.191185
  H      68.839236    -16.230340     -1.549874
  C      67.226612    -15.176922     -2.550359
  H      66.964495    -14.192761     -2.153499
  C      66.871609    -15.143140     -4.046413
  H      66.890265    -16.185888     -4.405377
  C      66.347439    -16.197961     -1.823692
  H      65.291984    -16.005494     -2.007913
  H      66.573278    -17.215887     -2.154878
  H      66.519369    -16.156657     -0.745883
  O      65.553702    -14.671009     -4.134572
  C      64.949834    -14.670843     -5.383495
  H      63.879176    -14.542331     -5.232037
  H      65.301538    -13.855321     -6.020151
  H      65.110005    -15.616700     -5.913125
  C      69.489516    -14.204143     -1.778455
  H      70.541291    -14.437476     -1.599059
  H      69.449525    -13.380456     -2.493897
  H      69.064907    -13.842943     -0.838840
  C      67.800503    -14.281336     -4.900331
  H      68.837385    -14.601469     -4.833522
  H      67.523306    -14.330565     -5.952998
  H      67.737315    -13.237955     -4.584647
24
Coordinates from ORCA-job 29 Relaxed Surface Scan Step 16
  C      68.847828    -15.013746     -2.540370
  H      69.376680    -14.347794     -3.226511
  H      69.122405    -16.034802     -2.829827
  C      67.336610    -14.810971     -2.728642
  H      67.119814    -13.754973     -2.543976
  C      66.870967    -15.100189     -4.167882
  H      66.781745    -16.192248     -4.276383
  C      66.496175    -15.629273     -1.743718
  H      65.437129    -15.519723     -1.971229
  H      66.749568    -16.692554     -1.797957
  H      66.648696    -15.304215     -0.714382
  O      65.591145    -14.537364     -4.284389
  C      64.824997    -14.887748     -5.385356
  H      63.804844    -14.557610     -5.196020
  H      65.167921    -14.411385     -6.307444
  H      64.812230    -15.972232     -5.542429
  C      69.358872    -14.740680     -1.127330
  H      70.448987    -14.793097     -1.098932
  H      69.067223    -13.743614     -0.787738
  H      68.979714    -15.462423     -0.403192
  C      67.794754    -14.573542     -5.262433
  H      68.764738    -15.067032     -5.239958
  H      67.368964    -14.755462     -6.248814
  H      67.945950    -13.497381     -5.154221
24
Coordinates from ORCA-job 29 Relaxed Surface Scan Step 17
  C      68.824884    -14.915320     -2.549266
  H      69.241108    -14.197794     -3.263165
  H      69.216057    -15.898502     -2.833295
  C      67.296010    -14.892349     -2.688927
  H      66.972449    -13.876814     -2.455202
  C      66.795511    -15.180945     -4.124595
  H      66.547322    -16.252492     -4.180562
  C      66.577324    -15.820741     -1.705563
  H      65.504511    -15.810836     -1.901298
  H      66.931014    -16.851806     -1.801269
  H      66.724578    -15.512408     -0.670188
  O      65.603648    -14.452580     -4.268175
  C      64.880615    -14.617098     -5.440088
  H      63.885924    -14.206435     -5.273419
  H      65.326567    -14.089432     -6.286660
  H      64.773614    -15.674163     -5.709226
  C      69.338357    -14.558662     -1.156181
  H      70.427419    -14.482004     -1.157868
  H      68.939677    -13.597253     -0.822693
  H      69.066619    -15.307359     -0.411038
  C      67.775809    -14.859799     -5.250097
  H      68.697274    -15.429634     -5.147010
  H      67.349831    -15.119427     -6.218730
  H      68.021831    -13.796204     -5.264618
24
Coordinates from ORCA-job 29 Relaxed Surface Scan Step 18
  C      68.609281    -14.567289     -2.586814
  H      68.860268    -13.776866     -3.292242
  H      69.351372    -15.356188     -2.742022
  C      67.205576    -15.109044     -2.903723
  H      66.494407    -14.348003     -2.568914
  C      66.911357    -15.275781     -4.416968
  H      66.161006    -16.065440     -4.519335
  C      66.917507    -16.412068     -2.151459
  H      65.882600    -16.729983     -2.294127
  H      67.562912    -17.221439     -2.504320
  H      67.080348    -16.308812     -1.078769
  O      66.374050    -14.095705     -4.954846
  C      65.002768    -13.930882     -4.808784
  H      64.730568    -12.978903     -5.261049
  H      64.447256    -14.727418     -5.315758
  H      64.690548    -13.911818     -3.760148
  C      68.761788    -14.005347     -1.174489
  H      69.764910    -13.599435     -1.029394
  H      68.050158    -13.195863     -0.994775
  H      68.604706    -14.762182     -0.404561
  C      68.094251    -15.678764     -5.283024
  H      68.569800    -16.585746     -4.905975
  H      67.749580    -15.869481     -6.299712
  H      68.840940    -14.887599     -5.327927
24
Coordinates from ORCA-job 29 Relaxed Surface Scan Step 19
  C      68.527075    -14.485597     -2.605873
  H      68.649828    -13.667734     -3.315572
  H      69.348310    -15.182526     -2.798697
  C      67.185514    -15.183138     -2.879499
  H      66.400100    -14.531854     -2.482672
  C      66.867757    -15.314543     -4.384703
  H      66.034423    -16.018240     -4.482380
  C      67.076582    -16.534986     -2.168063
  H      66.093240    -16.984942     -2.321515
  H      67.825463    -17.242204     -2.532980
  H      67.221481    -16.434254     -1.092254
  O      66.467882    -14.077617     -4.914859
  C      65.117736    -13.770550     -4.821107
  H      64.967285    -12.789148     -5.267312
  H      64.502531    -14.496114     -5.364333
  H      64.765948    -13.731912     -3.785627
  C      68.668553    -13.924775     -1.192398
  H      69.624890    -13.411087     -1.075596
  H      67.878271    -13.202175     -0.974783
  H      68.624274    -14.704205     -0.429793
  C      68.005995    -15.832117     -5.250733
  H      68.390136    -16.783695     -4.880552
  H      67.648622    -15.980337     -6.270175
  H      68.826060    -15.116304     -5.287655
24
Coordinates from ORCA-job 29 Relaxed Surface Scan Step 20
  C      68.419959    -14.382106     -2.626244
  H      68.383709    -13.520421     -3.294126
  H      69.312249    -14.951268     -2.903458
  C      67.166048    -15.234720     -2.872529
  H      66.320893    -14.700154     -2.426866
  C      66.827386    -15.363497     -4.372695
  H      65.927923    -15.987179     -4.449177
  C      67.233384    -16.604564     -2.189847
  H      66.347935    -17.203541     -2.415849
  H      68.109951    -17.173962     -2.505865
  H      67.284696    -16.503516     -1.105506
  O      66.551444    -14.107598     -4.934562
  C      65.256103    -13.628685     -4.822414
  H      65.212839    -12.665817     -5.328333
  H      64.535315    -14.302019     -5.299392
  H      64.948594    -13.480993     -3.782781
  C      68.573625    -13.885923     -1.189982
  H      69.454094    -13.247236     -1.095342
  H      67.706138    -13.297669     -0.880190
  H      68.689700    -14.705094     -0.478131
  C      67.912363    -15.997416     -5.230440
  H      68.183994    -16.990055     -4.870856
  H      67.552673    -16.091084     -6.255393
  H      68.806940    -15.375538     -5.249155
24
Coordinates from ORCA-job 29 Relaxed Surface Scan Step 21
  C      68.253983    -14.263148     -2.654927
  H      68.041287    -13.360444     -3.230219
  H      69.193558    -14.660358     -3.049751
  C      67.120149    -15.269526     -2.901842
  H      66.218572    -14.856111     -2.438946
  C      66.796188    -15.436525     -4.404794
  H      65.859785    -16.009659     -4.466596
  C      67.359128    -16.625437     -2.228642
  H      66.590376    -17.347919     -2.513697
  H      68.329531    -17.048540     -2.495677
  H      67.328438    -16.536432     -1.142639
  O      66.606064    -14.205694     -5.046954
  C      65.452384    -13.494850     -4.764725
  H      65.382900    -12.677264     -5.480295
  H      64.557625    -14.119333     -4.866912
  H      65.454958    -13.065806     -3.758322
  C      68.452906    -13.881057     -1.189444
  H      69.210292    -13.100272     -1.095908
  H      67.528665    -13.496432     -0.750017
  H      68.781826    -14.725634     -0.581723
  C      67.853826    -16.170451     -5.215975
  H      68.010496    -17.185690     -4.853416
  H      67.529395    -16.223951     -6.255058
  H      68.805624    -15.639522     -5.192654
24
Coordinates from ORCA-job 29 Relaxed Surface Scan Step 22
  C      68.099287    -14.151902     -2.629725
  H      67.679927    -13.228360     -3.035585
  H      69.015941    -14.341193     -3.195437
  C      67.087844    -15.283333     -2.875526
  H      66.162122    -14.990705     -2.373770
  C      66.753329    -15.452043     -4.382417
  H      65.764629    -15.934287     -4.443028
  C      67.490284    -16.617067     -2.235697
  H      66.792536    -17.410830     -2.512973
  H      68.491365    -16.932551     -2.535858
  H      67.478847    -16.547473     -1.148142
  O      66.692732    -14.223873     -5.054166
  C      65.578278    -13.429610     -4.863433
  H      65.664555    -12.570360     -5.526313
  H      64.654211    -13.964566     -5.111111
  H      65.490018    -13.060585     -3.836954
  C      68.452246    -13.919846     -1.161887
  H      69.078377    -13.031650     -1.056869
  H      67.555461    -13.762753     -0.556247
  H      69.002075    -14.756563     -0.728434
  C      67.748253    -16.294286     -5.169456
  H      67.775412    -17.326218     -4.823361
  H      67.455965    -16.292158     -6.219187
  H      68.754263    -15.877843     -5.103558
24
Coordinates from ORCA-job 29 Relaxed Surface Scan Step 23
  C      67.975261    -14.085201     -2.553932
  H      67.402684    -13.195046     -2.829634
  H      68.850944    -14.097175     -3.208026
  C      67.094807    -15.317396     -2.828201
  H      66.168607    -15.158423     -2.275283
  C      66.711856    -15.442086     -4.338617
  H      65.666864    -15.790047     -4.384271
  C      67.670968    -16.620364     -2.260568
  H      67.029333    -17.471070     -2.498668
  H      68.669372    -16.835608     -2.645741
  H      67.739294    -16.570464     -1.174278
  O      66.805212    -14.211840     -5.006747
  C      65.707332    -13.375373     -5.000625
  H      65.963799    -12.482581     -5.568455
  H      64.837602    -13.846158     -5.473061
  H      65.416238    -13.066190     -3.991177
  C      68.424702    -13.927518     -1.102652
  H      68.928942    -12.968805     -0.965877
  H      67.574555    -13.952006     -0.415261
  H      69.123056    -14.706622     -0.793968
  C      67.577030    -16.397531     -5.150982
  H      67.504090    -17.425667     -4.801353
  H      67.251270    -16.364667     -6.190416
  H      68.624140    -16.092216     -5.121339
24
Coordinates from ORCA-job 29 Relaxed Surface Scan Step 24
  C      67.959794    -14.062009     -2.387638
  H      67.332078    -13.200011     -2.616662
  H      68.828685    -13.980007     -3.045377
  C      67.166038    -15.336214     -2.726563
  H      66.272468    -15.312223     -2.099021
  C      66.660798    -15.344262     -4.212513
  H      65.579958    -15.531524     -4.181716
  C      67.910692    -16.616024     -2.326389
  H      67.322554    -17.508179     -2.544907
  H      68.870015    -16.712522     -2.838422
  H      68.106363    -16.625091     -1.254812
  O      66.878773    -14.095083     -4.819715
  C      65.779002    -13.417283     -5.311819
  H      66.129829    -12.486141     -5.753888
  H      65.255692    -13.988212     -6.087116
  H      65.058378    -13.173654     -4.523042
  C      68.406942    -13.955904     -0.930772
  H      68.830828    -12.968168     -0.738515
  H      67.567355    -14.091712     -0.243199
  H      69.170913    -14.689610     -0.670098
  C      67.290486    -16.387330     -5.130365
  H      67.106590    -17.407554     -4.797328
  H      66.866637    -16.278123     -6.129711
  H      68.367087    -16.233216     -5.209545
