25
Coordinates from ORCA-job 3 Relaxed Surface Scan Step 1
  C      -2.861963      1.077617     -0.210513
  H      -2.636616      2.139642     -0.094548
  H      -3.269609      0.716581      0.733543
  H      -3.601412      0.972154     -1.001268
  C      -1.603192      0.336545     -0.618888
  C      -0.667903     -0.135553      0.494173
  H      -1.286345     -0.737389      1.168555
  C       0.455503     -1.067512     -0.027616
  H       0.538457     -1.908798      0.663586
  H       0.089839     -1.506016     -0.954809
  C       1.885083     -0.552156     -0.314895
  H       2.405315     -1.435520     -0.695266
  C       1.947331      0.499929     -1.425074
  H       1.479554      1.440629     -1.128801
  H       2.985996      0.720447     -1.683002
  H       1.438027      0.155326     -2.324518
  C       2.705813     -0.129270      0.911484
  H       2.592389     -0.840513      1.733273
  H       3.766219     -0.100048      0.650739
  H       2.444653      0.859928      1.284124
  O      -1.376903      0.143055     -1.769823
  C      -0.246835      1.056633      1.374496
  H       0.355336      0.714075      2.213536
  H       0.327305      1.802555      0.826836
  H      -1.122047      1.553730      1.793336
25
Coordinates from ORCA-job 3 Relaxed Surface Scan Step 2
  C      -2.971959      0.963844     -0.116262
  H      -2.858401      2.047971     -0.054042
  H      -3.277635      0.598586      0.863533
  H      -3.745025      0.750806     -0.851756
  C      -1.667448      0.351267     -0.590395
  C      -0.658488     -0.080013      0.474117
  H      -1.212430     -0.663705      1.216141
  C       0.440781     -1.013533     -0.104774
  H       0.457976     -1.916419      0.506966
  H       0.087105     -1.347186     -1.078502
  C       1.905910     -0.563750     -0.308718
  H       2.397125     -1.467643     -0.681142
  C       2.071383      0.499482     -1.397769
  H       1.642497      1.460075     -1.107979
  H       3.129728      0.667337     -1.611680
  H       1.582990      0.192850     -2.323048
  C       2.688220     -0.203438      0.961599
  H       2.486926     -0.910827      1.769878
  H       3.760436     -0.240911      0.756016
  H       2.472249      0.798608      1.328847
  O      -1.453390      0.243042     -1.754736
  C      -0.211748      1.165825      1.265371
  H       0.403539      0.879995      2.115117
  H       0.351810      1.870443      0.656132
  H      -1.078156      1.693366      1.665747
25
Coordinates from ORCA-job 3 Relaxed Surface Scan Step 3
  C      -3.101131      0.793084      0.038909
  H      -3.094184      1.876352     -0.097640
  H      -3.219447      0.585971      1.101787
  H      -3.947515      0.392791     -0.515679
  C      -1.822764      0.212040     -0.536416
  C      -0.633871      0.047147      0.418604
  H      -1.054973     -0.438916      1.302638
  C       0.436772     -0.912368     -0.175712
  H       0.382755     -1.840095      0.401093
  H       0.105860     -1.166388     -1.179762
  C       1.938414     -0.570004     -0.291276
  H       2.334700     -1.436117     -0.831752
  C       2.263500      0.642436     -1.170524
  H       2.094882      1.590253     -0.659996
  H       3.315415      0.621900     -1.464621
  H       1.663776      0.640032     -2.082835
  C       2.693200     -0.532545      1.040975
  H       2.503770     -1.436139      1.624871
  H       3.770271     -0.473883      0.867598
  H       2.421729      0.324023      1.659081
  O      -1.767664     -0.063086     -1.691157
  C      -0.209705      1.458269      0.868180
  H       0.634322      1.422208      1.551312
  H       0.062268      2.089166      0.023081
  H      -1.026382      1.949937      1.397899
25
Coordinates from ORCA-job 3 Relaxed Surface Scan Step 4
  C      -3.133468      0.716079      0.187239
  H      -3.192839      1.780319     -0.049398
  H      -3.128669      0.609859      1.271422
  H      -4.013618      0.231787     -0.230939
  C      -1.896770      0.129460     -0.468866
  C      -0.606942      0.101157      0.365207
  H      -0.933220     -0.337694      1.311323
  C       0.438009     -0.843533     -0.283870
  H       0.321715     -1.819156      0.202966
  H       0.139615     -0.984884     -1.320006
  C       1.954879     -0.561049     -0.294127
  H       2.341717     -1.403439     -0.877296
  C       2.395010      0.687127     -1.068912
  H       2.240696      1.611488     -0.514024
  H       3.461987      0.625637     -1.295228
  H       1.862315      0.770942     -2.018567
  C       2.612800     -0.639236      1.085670
  H       2.372343     -1.581737      1.582625
  H       3.700342     -0.579407      1.001570
  H       2.294704      0.171056      1.744730
  O      -1.955240     -0.261660     -1.589255
  C      -0.205377      1.557635      0.654030
  H       0.684074      1.608722      1.276474
  H      -0.009816      2.110182     -0.264947
  H      -1.000251      2.076415      1.190838
25
Coordinates from ORCA-job 3 Relaxed Surface Scan Step 5
  C      -3.139092      0.638719      0.334190
  H      -3.286743      1.675041      0.023819
  H      -3.024947      0.622162      1.417448
  H      -4.023558      0.075060      0.044093
  C      -1.936707      0.067734     -0.396059
  C      -0.576256      0.153772      0.312575
  H      -0.798753     -0.241819      1.306913
  C       0.439700     -0.768503     -0.396181
  H       0.250349     -1.783449     -0.021334
  H       0.181667     -0.785375     -1.453317
  C       1.963402     -0.556148     -0.299807
  H       2.353788     -1.386140     -0.897237
  C       2.509560      0.701370     -0.988387
  H       2.349291      1.612392     -0.414015
  H       3.587660      0.602206     -1.134533
  H       2.057585      0.840255     -1.972815
  C       2.513507     -0.713129      1.119086
  H       2.201232     -1.662353      1.560214
  H       3.605619     -0.691621      1.120963
  H       2.172030      0.086233      1.781065
  O      -2.075641     -0.405526     -1.476967
  C      -0.211635      1.637740      0.472560
  H       0.685449      1.762177      1.073728
  H      -0.043079      2.113086     -0.494492
  H      -1.010432      2.182186      0.977150
25
Coordinates from ORCA-job 3 Relaxed Surface Scan Step 6
  C      -3.120025      0.568852      0.477355
  H      -3.360471      1.566887      0.105606
  H      -2.908632      0.645201      1.543281
  H      -3.989645     -0.064870      0.314739
  C      -1.954639      0.009211     -0.318746
  C      -0.545875      0.202147      0.256724
  H      -0.645784     -0.155076      1.286078
  C       0.445073     -0.686577     -0.514166
  H       0.183258     -1.723664     -0.268301
  H       0.236931     -0.574160     -1.577874
  C       1.966417     -0.554079     -0.308059
  H       2.367825     -1.383275     -0.898228
  C       2.613525      0.698196     -0.913540
  H       2.431838      1.601905     -0.333836
  H       3.696604      0.565263     -0.966350
  H       2.255894      0.874327     -1.930231
  C       2.398874     -0.770376      1.143288
  H       2.000975     -1.707532      1.539232
  H       3.487119     -0.812227      1.226384
  H       2.054318      0.036828      1.794581
  O      -2.157092     -0.544117     -1.350629
  C      -0.235767      1.705719      0.309810
  H       0.668831      1.902550      0.879495
  H      -0.103867      2.117159     -0.692373
  H      -1.041687      2.257777      0.794419
25
Coordinates from ORCA-job 3 Relaxed Surface Scan Step 7
  C      -3.086152      0.496004      0.611148
  H      -3.405369      1.465291      0.222934
  H      -2.797978      0.625717      1.653686
  H      -3.931784     -0.185346      0.540482
  C      -1.957281     -0.038001     -0.251666
  C      -0.522673      0.247417      0.198548
  H      -0.491286     -0.074913      1.244323
  C       0.456229     -0.597332     -0.629243
  H       0.134060     -1.636594     -0.521601
  H       0.310344     -0.359498     -1.684166
  C       1.965755     -0.555967     -0.313298
  H       2.371942     -1.406013     -0.869671
  C       2.713974      0.669093     -0.852224
  H       2.501845      1.580456     -0.294072
  H       3.792282      0.502950     -0.795869
  H       2.465117      0.853215     -1.899396
  C       2.278779     -0.801043      1.164516
  H       1.783461     -1.703135      1.531350
  H       3.352400     -0.928578      1.318533
  H       1.958355      0.033458      1.793188
  O      -2.205262     -0.642878     -1.244109
  C      -0.281603      1.765218      0.172425
  H       0.650111      2.025375      0.668259
  H      -0.234956      2.135849     -0.853597
  H      -1.076316      2.305326      0.688182
25
Coordinates from ORCA-job 3 Relaxed Surface Scan Step 8
  C      -2.893825      0.550686      0.909314
  H      -3.359808      1.359921      0.343489
  H      -2.452565      0.980458      1.808342
  H      -3.669463     -0.163207      1.178242
  C      -1.869014     -0.146222      0.034421
  C      -0.448412      0.424111      0.025447
  H      -0.156223      0.458606      1.079920
  C       0.514463     -0.479715     -0.763041
  H       0.123710     -1.496506     -0.730949
  H       0.480409     -0.188000     -1.816430
  C       1.986272     -0.540221     -0.308236
  H       2.478645     -1.169376     -1.056860
  C       2.727582      0.798827     -0.316144
  H       2.366123      1.472837      0.463899
  H       3.793464      0.642787     -0.136455
  H       2.627764      1.308641     -1.276676
  C       2.149589     -1.245897      1.041120
  H       1.675732     -2.229545      1.033032
  H       3.205944     -1.388177      1.279185
  H       1.709868     -0.670978      1.859965
  O      -2.187171     -1.085315     -0.620697
  C      -0.504796      1.869120     -0.502480
  H       0.485682      2.314966     -0.538125
  H      -0.912995      1.889014     -1.515651
  H      -1.126980      2.509255      0.124029
25
Coordinates from ORCA-job 3 Relaxed Surface Scan Step 9
  C      -2.770044      0.533987      1.038997
  H      -3.341661      1.246658      0.440903
  H      -2.286175      1.085206      1.845057
  H      -3.463941     -0.196378      1.449519
  C      -1.774830     -0.182351      0.146470
  C      -0.415115      0.487346     -0.061309
  H      -0.022413      0.642992      0.947885
  C       0.560533     -0.390227     -0.870853
  H       0.130546     -1.384137     -0.974948
  H       0.633431      0.007018     -1.886885
  C       1.983628     -0.540894     -0.301062
  H       2.524628     -1.147507     -1.034489
  C       2.742390      0.782469     -0.176550
  H       2.291671      1.444704      0.566991
  H       3.775437      0.607857      0.131753
  H       2.768811      1.317218     -1.128609
  C       2.007281     -1.321757      1.016082
  H       1.501644     -2.283871      0.912792
  H       3.034263     -1.517401      1.332151
  H       1.519896     -0.775776      1.827668
  O      -2.070560     -1.213424     -0.365174
  C      -0.613694      1.878069     -0.689499
  H       0.347601      2.367058     -0.840539
  H      -1.099626      1.795328     -1.664380
  H      -1.219702      2.533885     -0.063312
25
Coordinates from ORCA-job 3 Relaxed Surface Scan Step 10
  C      -2.641810      0.510013      1.148672
  H      -3.331283      1.087719      0.529568
  H      -2.164165      1.196358      1.847616
  H      -3.218082     -0.235752      1.691907
  C      -1.641441     -0.197719      0.255097
  C      -0.382430      0.579908     -0.136650
  H       0.062180      0.865920      0.821039
  C       0.613999     -0.270901     -0.951311
  H       0.145039     -1.226300     -1.179996
  H       0.795726      0.217803     -1.911593
  C       1.976684     -0.543830     -0.290241
  H       2.536102     -1.144238     -1.015066
  C       2.792477      0.729186     -0.050213
  H       2.319857      1.388882      0.681974
  H       3.787556      0.487232      0.329391
  H       2.921053      1.296701     -0.974812
  C       1.853956     -1.382792      0.984170
  H       1.299011     -2.303850      0.797712
  H       2.840130     -1.655961      1.366035
  H       1.338632     -0.841825      1.782136
  O      -1.854530     -1.308371     -0.110490
  C      -0.761134      1.882615     -0.860641
  H       0.137668      2.454510     -1.092297
  H      -1.271095      1.669653     -1.802965
  H      -1.410102      2.521108     -0.260383
25
Coordinates from ORCA-job 3 Relaxed Surface Scan Step 11
  C      -2.501718      0.490181      1.258205
  H      -3.281348      0.980263      0.671472
  H      -2.029672      1.246153      1.885513
  H      -2.972389     -0.269698      1.878235
  C      -1.517551     -0.180915      0.319287
  C      -0.359342      0.671619     -0.206302
  H       0.101550      1.086194      0.694743
  C       0.665798     -0.155262     -1.005721
  H       0.174056     -1.067135     -1.343562
  H       0.945084      0.401143     -1.903394
  C       1.963089     -0.541444     -0.272894
  H       2.532103     -1.140793     -0.991326
  C       2.833982      0.670223      0.071454
  H       2.359223      1.324043      0.807270
  H       3.790185      0.352868      0.493103
  H       3.047464      1.269628     -0.816640
  C       1.716601     -1.421770      0.954308
  H       1.118612     -2.297544      0.700078
  H       2.661981     -1.767352      1.378485
  H       1.188920     -0.879680      1.743814
  O      -1.670938     -1.319101      0.012894
  C      -0.907483      1.854476     -1.021882
  H      -0.088046      2.501014     -1.337003
  H      -1.419295      1.502937     -1.920673
  H      -1.606870      2.466022     -0.450804
25
Coordinates from ORCA-job 3 Relaxed Surface Scan Step 12
  C      -2.322400      0.463809      1.395123
  H      -3.162362      0.979415      0.924909
  H      -1.787337      1.185876      2.011180
  H      -2.723955     -0.333964      2.016474
  C      -1.446529     -0.143267      0.315908
  C      -0.352076      0.742960     -0.282867
  H       0.103382      1.273707      0.556291
  C       0.710457     -0.065376     -1.046716
  H       0.220157     -0.938301     -1.478234
  H       1.071180      0.536920     -1.883927
  C       1.941439     -0.529758     -0.246093
  H       2.529163     -1.131231     -0.947399
  C       2.837552      0.633985      0.188478
  H       2.348614      1.279637      0.922083
  H       3.756247      0.263547      0.648424
  H       3.122356      1.255248     -0.663763
  C       1.592820     -1.434158      0.938074
  H       0.974428     -2.276777      0.628496
  H       2.500448     -1.829057      1.399927
  H       1.047606     -0.891750      1.715712
  O      -1.651135     -1.250411     -0.065427
  C      -1.019410      1.795484     -1.185809
  H      -0.273126      2.496029     -1.561704
  H      -1.496518      1.318529     -2.044514
  H      -1.777004      2.374977     -0.655966
25
Coordinates from ORCA-job 3 Relaxed Surface Scan Step 13
  C      -2.043591      0.427695      1.563219
  H      -2.381977      1.457219      1.438388
  H      -1.300353      0.426129      2.363680
  H      -2.879679     -0.206482      1.848550
  C      -1.412339     -0.095583      0.292870
  C      -0.383891      0.803543     -0.392463
  H       0.033027      1.475364      0.361288
  C       0.739421      0.009511     -1.079216
  H       0.282244     -0.844540     -1.580733
  H       1.164958      0.637939     -1.865742
  C       1.906268     -0.483249     -0.202776
  H       2.547168     -1.056279     -0.880705
  C       2.761294      0.663694      0.344441
  H       2.219619      1.267874      1.076247
  H       3.652321      0.276755      0.843489
  H       3.093719      1.328986     -0.455636
  C       1.482957     -1.438072      0.915808
  H       0.877462     -2.260346      0.534207
  H       2.360748     -1.862420      1.408045
  H       0.901183     -0.927755      1.687960
  O      -1.733811     -1.141674     -0.171504
  C      -1.143901      1.666154     -1.415642
  H      -0.475847      2.403674     -1.862138
  H      -1.547368      1.041378     -2.213968
  H      -1.975634      2.206556     -0.959011
25
Coordinates from ORCA-job 3 Relaxed Surface Scan Step 14
  C      -1.916645      0.493770      1.629275
  H      -2.311460      1.501151      1.486789
  H      -1.118849      0.562063      2.372082
  H      -2.700534     -0.163195      1.998851
  C      -1.358050     -0.048639      0.334071
  C      -0.388056      0.844092     -0.434739
  H       0.010586      1.608200      0.236510
  C       0.767504      0.074561     -1.094282
  H       0.339314     -0.740766     -1.679422
  H       1.233697      0.749215     -1.817616
  C       1.892189     -0.471638     -0.192544
  H       2.569489     -0.994762     -0.874813
  C       2.707060      0.642758      0.470774
  H       2.121460      1.192872      1.211497
  H       3.575437      0.230492      0.988998
  H       3.072600      1.362234     -0.265455
  C       1.438683     -1.507970      0.838885
  H       0.841299     -2.296651      0.382220
  H       2.306750     -1.969728      1.314586
  H       0.840762     -1.060420      1.636259
  O      -1.698891     -1.102645     -0.097538
  C      -1.214937      1.578624     -1.506636
  H      -0.595263      2.303226     -2.036504
  H      -1.613337      0.869008     -2.232831
  H      -2.056814      2.120220     -1.069758
25
Coordinates from ORCA-job 3 Relaxed Surface Scan Step 15
  C      -1.758077      0.575597      1.702288
  H      -2.213044      1.558048      1.560592
  H      -0.896984      0.711457      2.359944
  H      -2.473017     -0.098270      2.168619
  C      -1.308842      0.013129      0.374421
  C      -0.397360      0.883225     -0.483773
  H      -0.035344      1.736655      0.094342
  C       0.795382      0.138614     -1.106967
  H       0.406263     -0.635642     -1.771620
  H       1.297514      0.855060     -1.763657
  C       1.874614     -0.454853     -0.179100
  H       2.604941     -0.909257     -0.854854
  C       2.616141      0.623225      0.616778
  H       1.970127      1.099534      1.358614
  H       3.462670      0.192854      1.155944
  H       3.004695      1.407013     -0.037492
  C       1.399995     -1.585116      0.739288
  H       0.828602     -2.335375      0.193477
  H       2.261329     -2.077841      1.196001
  H       0.771745     -1.224105      1.555577
  O      -1.694453     -1.039800     -0.020766
  C      -1.277763      1.473281     -1.602549
  H      -0.698284      2.158625     -2.222873
  H      -1.671897      0.679400     -2.237316
  H      -2.124956      2.030613     -1.196259
25
Coordinates from ORCA-job 3 Relaxed Surface Scan Step 16
  C      -1.620588      0.646164      1.760675
  H      -2.109589      1.614581      1.634233
  H      -0.713773      0.817449      2.343862
  H      -2.280884     -0.031977      2.296272
  C      -1.271310      0.066907      0.410564
  C      -0.413520      0.915336     -0.521031
  H      -0.114169      1.843118     -0.027548
  C       0.825518      0.213019     -1.109575
  H       0.486169     -0.507794     -1.858685
  H       1.356281      0.977483     -1.684861
  C       1.859428     -0.435445     -0.166295
  H       2.627877     -0.839518     -0.830374
  C       2.544607      0.595767      0.734839
  H       1.849373      1.030196      1.457604
  H       3.356050      0.136701      1.303412
  H       2.971015      1.415288      0.151940
  C       1.361889     -1.634155      0.648593
  H       0.805099     -2.338813      0.031476
  H       2.214962     -2.161123      1.082081
  H       0.714838     -1.343176      1.476757
  O      -1.696258     -0.984441      0.053271
  C      -1.330207      1.360123     -1.678546
  H      -0.784110      2.001776     -2.372046
  H      -1.703279      0.494122     -2.224691
  H      -2.191424      1.924480     -1.313267
25
Coordinates from ORCA-job 3 Relaxed Surface Scan Step 17
  C      -1.513334      0.698542      1.805134
  H      -2.049653      1.644205      1.696698
  H      -0.575662      0.917862      2.317915
  H      -2.108276      0.007825      2.398185
  C      -1.249737      0.109190      0.439909
  C      -0.438517      0.942041     -0.547249
  H      -0.230116      1.928660     -0.126638
  C       0.857574      0.303566     -1.097842
  H       0.580241     -0.346694     -1.934477
  H       1.409026      1.120374     -1.572793
  C       1.846503     -0.413698     -0.154882
  H       2.629734     -0.796950     -0.812455
  C       2.516212      0.558314      0.820480
  H       1.799231      0.986467      1.525217
  H       3.284706      0.052342      1.408579
  H       2.994317      1.386306      0.292503
  C       1.314010     -1.651416      0.576653
  H       0.748270     -2.302644     -0.089060
  H       2.153556     -2.222971      0.978873
  H       0.667489     -1.404197      1.418390
  O      -1.711284     -0.937244      0.115207
  C      -1.370746      1.241079     -1.740222
  H      -0.853193      1.853004     -2.481306
  H      -1.693731      0.315245     -2.214519
  H      -2.262624      1.786864     -1.423639
25
Coordinates from ORCA-job 3 Relaxed Surface Scan Step 18
  C      -1.398508      0.771551      1.846171
  H      -2.006699      1.675992      1.763987
  H      -0.435856      1.068889      2.261552
  H      -1.892540      0.066100      2.510311
  C      -1.242227      0.161574      0.472787
  C      -0.483104      0.967470     -0.579695
  H      -0.392027      1.999984     -0.235125
  C       0.890742      0.425218     -1.065338
  H       0.707981     -0.132683     -1.990902
  H       1.454765      1.299683     -1.401253
  C       1.830937     -0.381798     -0.141277
  H       2.619207     -0.742205     -0.804637
  C       2.505361      0.499594      0.913611
  H       1.784664      0.912384      1.622788
  H       3.234546     -0.072990      1.490589
  H       3.031812      1.338247      0.453066
  C       1.254632     -1.656479      0.487325
  H       0.672526     -2.235362     -0.229379
  H       2.075068     -2.283841      0.842838
  H       0.612927     -1.459002      1.344909
  O      -1.757496     -0.873602      0.197123
  C      -1.407885      1.082943     -1.808775
  H      -0.926791      1.678124     -2.587422
  H      -1.635974      0.097129     -2.211175
  H      -2.352063      1.569150     -1.553420
25
Coordinates from ORCA-job 3 Relaxed Surface Scan Step 19
  C      -1.140088      1.524004      1.866808
  H      -1.957718      2.213808      1.640815
  H      -0.226556      2.114695      1.934158
  H      -1.343737      1.032372      2.815362
  C      -1.060097      0.498876      0.758106
  C      -0.558671      0.985807     -0.601272
  H      -0.596100      2.075833     -0.548449
  C       0.933600      0.647466     -0.956698
  H       0.927101      0.249737     -1.970938
  H       1.469800      1.596922     -1.014039
  C       1.830537     -0.317073     -0.150198
  H       2.800974     -0.210840     -0.650826
  C       2.068058      0.080917      1.309384
  H       1.205050     -0.120957      1.943831
  H       2.902106     -0.490199      1.722198
  H       2.321792      1.140212      1.399574
  C       1.423207     -1.787441     -0.279414
  H       1.367032     -2.083353     -1.329652
  H       2.161953     -2.431757      0.203081
  H       0.454641     -1.984176      0.177198
  O      -1.436477     -0.616683      0.927112
  C      -1.518758      0.505663     -1.692116
  H      -1.233931      0.921625     -2.659754
  H      -1.504094     -0.581629     -1.762142
  H      -2.545627      0.812242     -1.483470
25
Coordinates from ORCA-job 3 Relaxed Surface Scan Step 20
  C      -1.014233      1.698495      1.833016
  H      -1.830350      2.402100      1.648722
  H      -0.080710      2.256866      1.765599
  H      -1.131545      1.278060      2.829154
  C      -1.089901      0.601626      0.794273
  C      -0.621611      0.952229     -0.614512
  H      -0.773331      2.032763     -0.700304
  C       0.918755      0.786479     -0.841270
  H       1.029505      0.589526     -1.906303
  H       1.390238      1.754921     -0.658887
  C       1.795828     -0.272458     -0.140746
  H       2.780603     -0.097753     -0.596379
  C       1.993887     -0.064749      1.364059
  H       1.103894     -0.311400      1.942714
  H       2.796146     -0.711097      1.726095
  H       2.279057      0.965255      1.591256
  C       1.383987     -1.712221     -0.454662
  H       1.319414     -1.879026     -1.532282
  H       2.116814     -2.417062     -0.055858
  H       0.415656     -1.954551     -0.015678
  O      -1.539232     -0.467067      1.061199
  C      -1.462775      0.223273     -1.660048
  H      -1.192024      0.556426     -2.663225
  H      -1.317870     -0.854005     -1.602111
  H      -2.526206      0.419438     -1.515165
25
Coordinates from ORCA-job 3 Relaxed Surface Scan Step 21
  C      -0.985488      1.819981      1.805362
  H      -1.783292      2.537328      1.596339
  H      -0.037214      2.346305      1.700623
  H      -1.101680      1.453393      2.822674
  C      -1.108280      0.672652      0.826952
  C      -0.635951      0.925658     -0.599871
  H      -0.874736      1.975650     -0.800644
  C       0.911794      0.863461     -0.767649
  H       1.082132      0.842627     -1.845582
  H       1.328757      1.812509     -0.420872
  C       1.780930     -0.257397     -0.156220
  H       2.771609     -0.063958     -0.585117
  C       1.960505     -0.164308      1.363083
  H       1.053865     -0.425778      1.908666
  H       2.739407     -0.856655      1.689445
  H       2.269007      0.838435      1.667979
  C       1.373572     -1.671866     -0.573459
  H       1.273647     -1.756984     -1.657580
  H       2.129360     -2.392871     -0.254720
  H       0.426354     -1.964767     -0.119460
  O      -1.590881     -0.364040      1.155167
  C      -1.407699      0.061446     -1.596766
  H      -1.102660      0.298887     -2.617416
  H      -1.249246     -0.999925     -1.426735
  H      -2.479817      0.246288     -1.515540
25
Coordinates from ORCA-job 3 Relaxed Surface Scan Step 22
  C      -1.015205      1.925947      1.779031
  H      -1.801757      2.638348      1.517410
  H      -0.060655      2.440199      1.673591
  H      -1.158021      1.608644      2.809422
  C      -1.125022      0.731725      0.856553
  C      -0.635901      0.908852     -0.576501
  H      -0.936475      1.918512     -0.874010
  C       0.912648      0.914016     -0.701775
  H       1.127582      1.049788     -1.765175
  H       1.287177      1.823628     -0.224723
  C       1.779232     -0.256609     -0.179631
  H       2.766953     -0.062314     -0.608764
  C       1.966572     -0.249841      1.341820
  H       1.049747     -0.505214      1.873760
  H       2.720338     -0.985064      1.631433
  H       2.309306      0.724842      1.697107
  C       1.368996     -1.648536     -0.666613
  H       1.219458     -1.672298     -1.747648
  H       2.152800     -2.370317     -0.427167
  H       0.452446     -1.990157     -0.185930
  O      -1.608638     -0.288098      1.232630
  C      -1.360519     -0.045949     -1.528891
  H      -0.989876      0.081616     -2.547590
  H      -1.247259     -1.086815     -1.245707
  H      -2.429931      0.171163     -1.533972
25
Coordinates from ORCA-job 3 Relaxed Surface Scan Step 23
  C      -1.037880      2.440590      1.603197
  H      -1.856379      3.036242      1.191020
  H      -0.107163      2.942357      1.343599
  H      -1.149574      2.395730      2.684105
  C      -1.130221      1.043197      1.026844
  C      -0.661587      0.843533     -0.414356
  H      -1.032683      1.717303     -0.960095
  C       0.882291      0.914305     -0.571756
  H       1.087904      1.171088     -1.614378
  H       1.234494      1.777645     -0.001895
  C       1.790727     -0.277179     -0.190538
  H       2.802462      0.129990     -0.277841
  C       1.631001     -0.743094      1.258468
  H       0.667410     -1.220992      1.433226
  H       2.411546     -1.463514      1.512293
  H       1.717406      0.091461      1.958555
  C       1.750045     -1.460742     -1.164358
  H       1.831762     -1.126765     -2.201140
  H       2.591721     -2.128838     -0.968752
  H       0.841371     -2.053101     -1.073237
  O      -1.607634      0.159213      1.662702
  C      -1.340281     -0.375196     -1.039166
  H      -1.002942     -0.521089     -2.066147
  H      -1.148228     -1.283101     -0.474297
  H      -2.421571     -0.232971     -1.057393
25
Coordinates from ORCA-job 3 Relaxed Surface Scan Step 24
  C      -1.152368      2.579069      1.490639
  H      -2.042668      3.044629      1.059861
  H      -0.288541      3.141347      1.138407
  H      -1.220635      2.633937      2.574810
  C      -1.119645      1.130421      1.052137
  C      -0.633161      0.843078     -0.366461
  H      -0.997506      1.664044     -0.990755
  C       0.920562      0.916270     -0.459879
  H       1.177829      1.304252     -1.448281
  H       1.257075      1.696615      0.228327
  C       1.805511     -0.322271     -0.189341
  H       2.824725      0.070158     -0.247614
  C       1.639069     -0.902860      1.216905
  H       0.652745     -1.339620      1.370364
  H       2.382890     -1.682379      1.395810
  H       1.777543     -0.135162      1.981487
  C       1.750329     -1.416938     -1.262584
  H       1.808483     -0.993007     -2.267746
  H       2.602149     -2.090054     -1.142717
  H       0.850538     -2.026174     -1.206167
  O      -1.497063      0.267396      1.777522
  C      -1.300422     -0.417235     -0.919370
  H      -0.983415     -0.606035     -1.945153
  H      -1.086186     -1.295551     -0.317360
  H      -2.383842     -0.287862     -0.924185
