25
Coordinates from ORCA-job 4 Relaxed Surface Scan Step 1
  C      -4.295050     -0.971515      1.238954
  H      -4.407864     -0.927760      0.154125
  H      -5.131627     -0.431046      1.682058
  H      -4.321669     -2.015747      1.542039
  C      -2.957852     -0.378663      1.639528
  C      -2.863176      1.149842      1.724219
  H      -3.765904      1.471950      2.248372
  C      -2.975595      1.701244      0.290187
  H      -0.424269      2.114653      0.831433
  H      -2.169860      1.331795     -0.344394
  H      -3.923269      1.408915     -0.163033
  C      -1.625056      1.599087      2.550386
  H      -1.154051      0.695978      2.928368
  H      -1.977526      2.148106      3.427631
  C      -0.535249      2.447861      1.866428
  H      -2.936698      2.788565      0.278729
  C       0.816714      2.231069      2.553470
  H       1.130704      1.187670      2.490323
  H       1.594127      2.844475      2.092835
  H       0.766472      2.499672      3.612507
  C      -0.866871      3.945083      1.862874
  H      -0.115657      4.511365      1.307764
  H      -1.837491      4.165732      1.419068
  H      -0.882537      4.333159      2.885087
  O      -2.025880     -1.089026      1.837351
25
Coordinates from ORCA-job 4 Relaxed Surface Scan Step 2
  C      -4.059420     -1.045864      1.117705
  H      -4.075773     -1.058908      0.026054
  H      -4.985066     -0.587533      1.464393
  H      -4.000105     -2.075806      1.463679
  C      -2.825381     -0.300920      1.589648
  C      -2.948269      1.206523      1.819922
  H      -3.828745      1.355965      2.456941
  C      -3.260963      1.862611      0.462825
  H      -0.479442      1.954615      0.865318
  H      -2.460275      1.693510     -0.257923
  H      -4.179289      1.456322      0.037888
  C      -1.739808      1.751216      2.616551
  H      -1.372438      0.905080      3.195806
  H      -2.110011      2.485382      3.337164
  C      -0.546355      2.382218      1.865540
  H      -3.404370      2.934901      0.551894
  C       0.765305      2.049973      2.581488
  H       0.925993      0.971480      2.616194
  H       1.619132      2.503055      2.072619
  H       0.756784      2.422304      3.610050
  C      -0.694495      3.899246      1.707385
  H       0.136211      4.315465      1.133122
  H      -1.616857      4.174741      1.195261
  H      -0.700458      4.391651      2.683832
  O      -1.801038     -0.884761      1.742955
25
Coordinates from ORCA-job 4 Relaxed Surface Scan Step 3
  C      -3.869551     -1.056468      1.007787
  H      -3.872691     -0.940848     -0.078031
  H      -4.843100     -0.738962      1.381032
  H      -3.705591     -2.107221      1.236720
  C      -2.733111     -0.243324      1.595432
  C      -2.994398      1.231864      1.895239
  H      -3.856610      1.253426      2.575405
  C      -3.422312      1.954324      0.607227
  H      -0.570661      1.806712      0.904024
  H      -2.653929      1.892519     -0.164631
  H      -4.338028      1.526602      0.198304
  C      -1.822880      1.863150      2.667280
  H      -1.515049      1.117686      3.400946
  H      -2.210554      2.714988      3.233220
  C      -0.581576      2.320985      1.865657
  H      -3.616874      3.007536      0.793075
  C       0.707055      1.932740      2.593620
  H       0.765153      0.851425      2.721471
  H       1.588704      2.257005      2.035966
  H       0.753110      2.394988      3.584148
  C      -0.603027      3.825890      1.578261
  H       0.254341      4.119901      0.968664
  H      -1.504672      4.130381      1.044910
  H      -0.560096      4.400334      2.507865
  O      -1.678787     -0.753166      1.802719
25
Coordinates from ORCA-job 4 Relaxed Surface Scan Step 4
  C      -3.731308     -1.010266      0.859846
  H      -3.710700     -0.750330     -0.200460
  H      -4.735988     -0.806173      1.231269
  H      -3.503760     -2.068850      0.961458
  C      -2.679844     -0.208748      1.599840
  C      -3.013431      1.235876      1.967540
  H      -3.835508      1.141255      2.688621
  C      -3.565936      2.029471      0.774993
  H      -0.588380      1.607790      0.982472
  H      -2.846713      2.090632     -0.043307
  H      -4.480074      1.584788      0.381309
  C      -1.853250      1.920287      2.704455
  H      -1.577638      1.272606      3.535813
  H      -2.236487      2.841576      3.153292
  C      -0.588968      2.242816      1.871447
  H      -3.807668      3.047009      1.082994
  C       0.679609      1.903047      2.656699
  H       0.701303      0.842945      2.910184
  H       1.576277      2.131845      2.076096
  H       0.731730      2.477464      3.586458
  C      -0.554570      3.702373      1.406306
  H       0.316879      3.890291      0.775086
  H      -1.440942      3.974971      0.832047
  H      -0.494962      4.381507      2.261440
  O      -1.644805     -0.711718      1.900411
25
Coordinates from ORCA-job 4 Relaxed Surface Scan Step 5
  C      -3.653345     -0.909281      0.666120
  H      -3.640210     -0.478810     -0.336820
  H      -4.671383     -0.820200      1.048168
  H      -3.371556     -1.957702      0.606452
  C      -2.665102     -0.186214      1.556907
  C      -3.015408      1.225541      2.025056
  H      -3.763010      1.022836      2.800331
  C      -3.725028      2.088715      0.973717
  H      -0.481011      1.354238      1.143554
  H      -3.107180      2.266208      0.092741
  H      -4.657058      1.634072      0.637789
  C      -1.835099      1.922153      2.723924
  H      -1.588324      1.338640      3.608196
  H      -2.191021      2.885656      3.101725
  C      -0.545424      2.142124      1.898037
  H      -3.978093      3.057371      1.412106
  C       0.687494      1.989620      2.792560
  H       0.732763      0.987003      3.219571
  H       1.607495      2.157031      2.227993
  H       0.668699      2.709619      3.616281
  C      -0.516077      3.500468      1.189184
  H       0.387184      3.601975      0.583471
  H      -1.370289      3.647882      0.528506
  H      -0.518414      4.317918      1.915765
  O      -1.675734     -0.734398      1.924977
25
Coordinates from ORCA-job 4 Relaxed Surface Scan Step 6
  C      -3.727537     -0.606089      0.318892
  H      -3.776821      0.068356     -0.537365
  H      -4.718729     -0.629040      0.774824
  H      -3.458004     -1.602136     -0.023556
  C      -2.685087     -0.133128      1.310475
  C      -2.959398      1.148087      2.095405
  H      -3.621020      0.783995      2.891842
  C      -3.780852      2.203738      1.339694
  H      -0.041890      0.976911      1.709089
  H      -3.289507      2.565530      0.438213
  H      -4.759291      1.818706      1.051813
  C      -1.715228      1.700836      2.824333
  H      -1.477994      1.012580      3.635550
  H      -2.019050      2.635092      3.307973
  C      -0.401884      1.945371      2.056625
  H      -3.953946      3.062838      1.989500
  C       0.643183      2.501146      3.029489
  H       0.770089      1.846253      3.893859
  H       1.616424      2.599676      2.544226
  H       0.356380      3.489754      3.400009
  C      -0.527257      2.861752      0.836940
  H       0.458692      3.064229      0.413535
  H      -1.125240      2.411797      0.043859
  H      -0.978107      3.823867      1.096568
  O      -1.713061     -0.787654      1.514521
25
Coordinates from ORCA-job 4 Relaxed Surface Scan Step 7
  C      -3.571688     -0.436770      0.165118
  H      -3.554808      0.350432     -0.589787
  H      -4.604733     -0.545463      0.500132
  H      -3.233068     -1.371584     -0.274535
  C      -2.667475     -0.091056      1.328794
  C      -2.980314      1.141988      2.177782
  H      -3.581881      0.695167      2.977222
  C      -3.882765      2.197755      1.525143
  H      -0.059529      0.868495      1.884388
  H      -3.395003      2.726411      0.706435
  H      -4.806685      1.765235      1.141230
  C      -1.735496      1.748842      2.872118
  H      -1.517973      1.162292      3.763447
  H      -2.025929      2.738204      3.239016
  C      -0.415447      1.879251      2.089470
  H      -4.166617      2.938172      2.276181
  C       0.629919      2.562772      2.975390
  H       0.758302      2.030248      3.920003
  H       1.602443      2.594768      2.479728
  H       0.343292      3.592149      3.209631
  C      -0.544407      2.613831      0.753416
  H       0.431059      2.700374      0.270505
  H      -1.198542      2.089214      0.054834
  H      -0.937720      3.625720      0.886152
  O      -1.770070     -0.813980      1.624497
25
Coordinates from ORCA-job 4 Relaxed Surface Scan Step 8
  C      -3.454001     -0.285939      0.061351
  H      -3.450750      0.590418     -0.586820
  H      -4.494527     -0.503132      0.310738
  H      -3.028896     -1.137449     -0.464203
  C      -2.656815     -0.049568      1.326299
  C      -2.998888      1.135246      2.233562
  H      -3.506516      0.618100      3.051636
  C      -4.009058      2.145504      1.677922
  H      -0.091542      0.795036      2.024060
  H      -3.582995      2.773994      0.893685
  H      -4.900526      1.662698      1.277064
  C      -1.760018      1.836174      2.864397
  H      -1.578867      1.407454      3.847721
  H      -2.043670      2.875449      3.054922
  C      -0.419070      1.832959      2.111018
  H      -4.339292      2.800368      2.488853
  C       0.631289      2.577027      2.940443
  H       0.739036      2.134477      3.932842
  H       1.608984      2.541318      2.455348
  H       0.365096      3.629788      3.072064
  C      -0.511191      2.433356      0.706471
  H       0.462817      2.414786      0.213538
  H      -1.202577      1.886027      0.063505
  H      -0.844181      3.474714      0.741559
  O      -1.818977     -0.826337      1.658334
25
Coordinates from ORCA-job 4 Relaxed Surface Scan Step 9
  C      -3.383106     -0.119238     -0.023408
  H      -3.407857      0.827501     -0.561466
  H      -4.417513     -0.423999      0.148390
  H      -2.889597     -0.878634     -0.625124
  C      -2.661788     -0.007260      1.303324
  C      -3.010870      1.119573      2.281222
  H      -3.367373      0.547054      3.139800
  C      -4.163926      2.030239      1.848820
  H      -0.133017      0.752676      2.149621
  H      -3.884358      2.684274      1.020129
  H      -5.048509      1.465298      1.551963
  C      -1.790249      1.955590      2.790858
  H      -1.665105      1.746903      3.852657
  H      -2.071232      3.011240      2.736767
  C      -0.412553      1.806561      2.124715
  H      -4.456014      2.666787      2.686950
  C       0.630420      2.580038      2.936795
  H       0.686275      2.212843      3.963519
  H       1.623566      2.477224      2.494755
  H       0.394906      3.647488      2.976732
  C      -0.403803      2.279239      0.668882
  H       0.586193      2.154170      0.226052
  H      -1.103209      1.724064      0.042805
  H      -0.666498      3.338874      0.599108
  O      -1.869917     -0.836040      1.622444
25
Coordinates from ORCA-job 4 Relaxed Surface Scan Step 10
  C      -3.263425      0.130787     -0.070997
  H      -3.149536      1.136698     -0.472747
  H      -4.330959     -0.099041     -0.063122
  H      -2.756971     -0.587240     -0.711740
  C      -2.712578      0.002920      1.334209
  C      -2.995561      1.091895      2.371132
  H      -3.004126      0.545747      3.319937
  C      -4.360064      1.756531      2.166084
  H      -0.323119      0.746803      2.120327
  H      -4.448518      2.190503      1.169417
  H      -5.185662      1.055708      2.304658
  C      -1.885437      2.181030      2.495657
  H      -1.876733      2.463495      3.554192
  H      -2.201950      3.075733      1.951558
  C      -0.447677      1.826050      2.056867
  H      -4.490109      2.577408      2.866922
  C       0.580928      2.478546      2.983009
  H       0.460363      2.134836      4.012313
  H       1.599402      2.239618      2.670183
  H       0.480082      3.567807      2.980846
  C      -0.179029      2.222838      0.601605
  H       0.822844      1.917153      0.293886
  H      -0.883482      1.759263     -0.089917
  H      -0.251650      3.306221      0.470906
  O      -2.082168     -0.958843      1.641125
25
Coordinates from ORCA-job 4 Relaxed Surface Scan Step 11
  C      -3.303823      0.248787     -0.075894
  H      -3.169517      1.279080     -0.403338
  H      -4.373963      0.031876     -0.096564
  H      -2.803171     -0.430448     -0.762288
  C      -2.777798      0.008762      1.324663
  C      -2.940216      1.104482      2.373991
  H      -2.717532      0.614843      3.326890
  C      -4.376682      1.637069      2.406769
  H      -0.393272      0.755518      2.076256
  H      -4.672518      2.060707      1.445716
  H      -5.090833      0.852454      2.664435
  C      -1.930396      2.260474      2.197659
  H      -2.009428      2.868320      3.104248
  H      -2.257131      2.908723      1.379252
  C      -0.453659      1.840993      1.983685
  H      -4.471999      2.432736      3.143605
  C       0.460170      2.445282      3.052065
  H       0.147517      2.144902      4.054478
  H       1.493949      2.121037      2.916149
  H       0.445519      3.538129      3.011448
  C       0.044042      2.196879      0.579850
  H       1.070417      1.855925      0.430503
  H      -0.569441      1.734153     -0.195755
  H       0.024829      3.278217      0.417348
  O      -2.260199     -1.026433      1.601137
25
Coordinates from ORCA-job 4 Relaxed Surface Scan Step 12
  C      -3.358750      0.456091     -0.190840
  H      -3.208130      1.510667     -0.421439
  H      -4.435185      0.273580     -0.171978
  H      -2.916485     -0.163162     -0.967924
  C      -2.763413      0.071654      1.147865
  C      -2.919935      1.027987      2.325159
  H      -2.681028      0.424041      3.204226
  C      -4.357741      1.541064      2.457470
  H      -0.302988      0.798794      2.488499
  H      -4.653201      2.152308      1.603004
  H      -5.070318      0.718502      2.547152
  C      -1.918156      2.202088      2.288614
  H      -2.051675      2.733601      3.234928
  H      -2.203827      2.914519      1.507508
  C      -0.428991      1.823151      2.129835
  H      -4.456463      2.162904      3.346786
  C       0.457231      2.733052      2.984204
  H       0.201756      2.655085      4.043034
  H       1.511491      2.470319      2.876472
  H       0.344748      3.780768      2.690745
  C       0.034422      1.852920      0.670069
  H       1.078858      1.545594      0.590465
  H      -0.544448      1.180914      0.036827
  H      -0.047696      2.861293      0.254474
  O      -2.195212     -0.965269      1.281154
25
Coordinates from ORCA-job 4 Relaxed Surface Scan Step 13
  C      -3.364966      0.677188     -0.271274
  H      -3.101752      1.726342     -0.401036
  H      -4.454765      0.607894     -0.268090
  H      -2.985389      0.091493     -1.105425
  C      -2.828140      0.102335      1.023375
  C      -2.890828      0.953251      2.286770
  H      -2.597200      0.272702      3.088067
  C      -4.327068      1.423183      2.553902
  H      -0.233413      0.906576      2.779152
  H      -4.664837      2.147288      1.809901
  H      -5.027014      0.585086      2.553185
  C      -1.916565      2.147902      2.301238
  H      -2.100369      2.666258      3.245644
  H      -2.183571      2.865428      1.517940
  C      -0.411576      1.827053      2.214707
  H      -4.389770      1.904648      3.530300
  C       0.402252      2.943120      2.876352
  H       0.132952      3.063650      3.927645
  H       1.472126      2.730921      2.829553
  H       0.232930      3.901710      2.377497
  C       0.082840      1.597606      0.782848
  H       1.154109      1.387539      0.778649
  H      -0.406498      0.753521      0.299691
  H      -0.080271      2.486447      0.166507
  O      -2.398352     -1.006677      1.059211
25
Coordinates from ORCA-job 4 Relaxed Surface Scan Step 14
  C      -3.401093      0.888206     -0.332201
  H      -3.058326      1.919973     -0.387709
  H      -4.492613      0.903363     -0.300100
  H      -3.091653      0.344783     -1.222023
  C      -2.882498      0.162452      0.892483
  C      -2.850547      0.894975      2.230986
  H      -2.490632      0.148050      2.940007
  C      -4.280772      1.286649      2.634046
  H      -0.205040      1.066915      3.032945
  H      -4.674459      2.089778      2.007470
  H      -4.961211      0.435770      2.563321
  C      -1.916229      2.118572      2.297485
  H      -2.156752      2.634021      3.230335
  H      -2.162870      2.829969      1.502542
  C      -0.400982      1.851758      2.294540
  H      -4.295990      1.637254      3.666824
  C       0.347091      3.108662      2.748488
  H       0.026214      3.428367      3.742073
  H       1.423681      2.932174      2.788114
  H       0.173840      3.940267      2.059515
  C       0.142914      1.369847      0.946477
  H       1.226090      1.242813      0.996995
  H      -0.276873      0.411296      0.646228
  H      -0.063939      2.098131      0.156674
  O      -2.562485     -0.981580      0.820795
25
Coordinates from ORCA-job 4 Relaxed Surface Scan Step 15
  C      -3.578402      1.022337     -0.351735
  H      -3.405167      2.095436     -0.296912
  H      -4.655681      0.855896     -0.283332
  H      -3.235873      0.637320     -1.309695
  C      -2.897897      0.249429      0.760794
  C      -2.805429      0.877814      2.149266
  H      -2.383340      0.093383      2.778430
  C      -4.217895      1.194469      2.664474
  H      -0.239657      1.211717      3.222895
  H      -4.669211      2.031101      2.126925
  H      -4.880571      0.331931      2.568627
  C      -1.898013      2.123906      2.235299
  H      -2.212359      2.686048      3.117398
  H      -2.084982      2.790214      1.387058
  C      -0.386021      1.875809      2.363671
  H      -4.177729      1.464718      3.720618
  C       0.331596      3.192407      2.672632
  H      -0.067359      3.665194      3.572647
  H       1.399615      3.029110      2.829158
  H       0.223641      3.902714      1.848041
  C       0.236520      1.197694      1.140959
  H       1.316476      1.099297      1.268518
  H      -0.165147      0.200083      0.973488
  H       0.066920      1.788276      0.235320
  O      -2.499171     -0.853837      0.561767
25
Coordinates from ORCA-job 4 Relaxed Surface Scan Step 16
  C      -3.759653      1.086197     -0.351330
  H      -3.685271      2.165800     -0.231914
  H      -4.807001      0.808875     -0.213515
  H      -3.461669      0.799964     -1.357610
  C      -2.918267      0.318430      0.649368
  C      -2.768419      0.875322      2.062509
  H      -2.286599      0.075524      2.625255
  C      -4.147743      1.129425      2.686648
  H      -0.320545      1.315717      3.333379
  H      -4.660160      1.971336      2.216690
  H      -4.792213      0.251450      2.606284
  C      -1.878176      2.140227      2.130033
  H      -2.264229      2.777675      2.928239
  H      -1.980182      2.730918      1.213868
  C      -0.385733      1.898674      2.407349
  H      -4.037118      1.362025      3.746993
  C       0.325598      3.231491      2.652814
  H      -0.134987      3.786919      3.472748
  H       1.375632      3.074330      2.907125
  H       0.293192      3.865140      1.762045
  C       0.317269      1.103113      1.305703
  H       1.374015      0.969285      1.546156
  H      -0.119806      0.115634      1.167392
  H       0.262547      1.628996      0.347702
  O      -2.425615     -0.720002      0.342378
25
Coordinates from ORCA-job 4 Relaxed Surface Scan Step 17
  C      -3.915583      1.123541     -0.342761
  H      -3.880804      2.200458     -0.183057
  H      -4.934117      0.790497     -0.131604
  H      -3.688298      0.891601     -1.380929
  C      -2.958206      0.366254      0.555589
  C      -2.737743      0.871810      1.977373
  H      -2.206319      0.062546      2.477161
  C      -4.067585      1.084079      2.711128
  H      -0.420480      1.388930      3.395693
  H      -4.637931      1.916814      2.295100
  H      -4.693989      0.190182      2.672987
  C      -1.853317      2.147069      2.006358
  H      -2.302482      2.864420      2.696356
  H      -1.857403      2.642938      1.030078
  C      -0.395781      1.916842      2.435056
  H      -3.876844      1.309015      3.761977
  C       0.311385      3.254386      2.663484
  H      -0.203834      3.856894      3.414817
  H       1.336832      3.102220      3.006101
  H       0.355391      3.839199      1.740457
  C       0.383453      1.051376      1.442595
  H       1.400671      0.877480      1.799693
  H      -0.085917      0.081535      1.282754
  H       0.455355      1.546040      0.469591
  O      -2.411588     -0.613662      0.160314
25
Coordinates from ORCA-job 4 Relaxed Surface Scan Step 18
  C      -4.052699      1.163430     -0.328323
  H      -3.996075      2.237778     -0.154243
  H      -5.051017      0.833480     -0.032731
  H      -3.917700      0.948032     -1.385910
  C      -3.022086      0.394245      0.472150
  C      -2.708193      0.857386      1.889444
  H      -2.138954      0.036297      2.322763
  C      -3.972754      1.047366      2.733886
  H      -0.525568      1.443819      3.429000
  H      -4.589993      1.871064      2.370389
  H      -4.585374      0.143211      2.746962
  C      -1.820388      2.132774      1.873493
  H      -2.322786      2.920677      2.438992
  H      -1.719533      2.523203      0.855510
  C      -0.411842      1.929900      2.453018
  H      -3.697802      1.274468      3.765445
  C       0.276761      3.275969      2.685972
  H      -0.296102      3.905141      3.370706
  H       1.271745      3.138988      3.114269
  H       0.394173      3.825396      1.747787
  C       0.448810      1.023426      1.569680
  H       1.415654      0.829106      2.038593
  H      -0.028142      0.063199      1.374063
  H       0.639125      1.496192      0.602078
  O      -2.474391     -0.552080      0.003317
25
Coordinates from ORCA-job 4 Relaxed Surface Scan Step 19
  C      -4.170934      1.237360     -0.303211
  H      -4.041044      2.304948     -0.124439
  H      -5.155542      0.957071      0.077161
  H      -4.140437      1.030617     -1.370613
  C      -3.113338      0.409193      0.395965
  C      -2.675873      0.821792      1.795509
  H      -2.080674     -0.018103      2.150627
  C      -3.860253      0.997916      2.751160
  H      -0.630394      1.497011      3.446349
  H      -4.509595      1.822259      2.450628
  H      -4.466004      0.090802      2.806817
  C      -1.778413      2.087572      1.735869
  H      -2.325026      2.931145      2.164562
  H      -1.570603      2.365479      0.697543
  C      -0.432644      1.939082      2.463739
  H      -3.501799      1.216048      3.758127
  C       0.214285      3.306089      2.694435
  H      -0.425149      3.953809      3.298020
  H       1.170251      3.206324      3.212534
  H       0.404400      3.815855      1.745857
  C       0.520788      1.008058      1.710193
  H       1.434512      0.838937      2.283640
  H       0.072249      0.036010      1.503555
  H       0.807800      1.445649      0.750160
  O      -2.631697     -0.538454     -0.137879
25
Coordinates from ORCA-job 4 Relaxed Surface Scan Step 20
  C      -4.266815      1.355376     -0.262456
  H      -4.032197      2.404876     -0.083893
  H      -5.232759      1.149558      0.203491
  H      -4.350901      1.168209     -1.330583
  C      -3.221638      0.429469      0.324087
  C      -2.636216      0.766137      1.690267
  H      -2.024640     -0.099370      1.941443
  C      -3.726786      0.910563      2.757514
  H      -0.742872      1.571837      3.457359
  H      -4.389640      1.752586      2.549586
  H      -4.336741      0.007216      2.824791
  C      -1.729923      2.018185      1.601562
  H      -2.313253      2.897949      1.886474
  H      -1.417080      2.186325      0.565900
  C      -0.462033      1.952104      2.470314
  H      -3.284584      1.079932      3.739271
  C       0.131465      3.348730      2.666615
  H      -0.576125      4.016603      3.162459
  H       1.036153      3.310216      3.276712
  H       0.398810      3.799903      1.707030
  C       0.583320      0.999534      1.883862
  H       1.444640      0.911196      2.549143
  H       0.186016     -0.003395      1.724740
  H       0.944837      1.366934      0.919722
  O      -2.866173     -0.538205     -0.269100
25
Coordinates from ORCA-job 4 Relaxed Surface Scan Step 21
  C      -4.406849      1.476160     -0.161426
  H      -4.167625      2.510675      0.084604
  H      -5.307275      1.205450      0.393832
  H      -4.613829      1.385077     -1.225217
  C      -3.284686      0.528359      0.207435
  C      -2.572582      0.717431      1.543453
  H      -1.943184     -0.166637      1.632785
  C      -3.559981      0.740577      2.715838
  H      -0.901486      1.791388      3.487650
  H      -4.201465      1.623679      2.689348
  H      -4.201417     -0.143274      2.706699
  C      -1.674581      1.971734      1.486619
  H      -2.296978      2.857254      1.643603
  H      -1.253321      2.067936      0.480481
  C      -0.508633      2.007469      2.489967
  H      -3.034201      0.747227      3.669919
  C       0.101765      3.410690      2.535695
  H      -0.638095      4.158104      2.829809
  H       0.925005      3.458746      3.251216
  H       0.496069      3.699501      1.557550
  C       0.567462      0.964498      2.176778
  H       1.376292      1.014585      2.908524
  H       0.176743     -0.053091      2.193310
  H       1.002520      1.136528      1.188690
  O      -2.964804     -0.347603     -0.530852
25
Coordinates from ORCA-job 4 Relaxed Surface Scan Step 22
  C      -4.595913      1.500240      0.017851
  H      -4.476751      2.490684      0.457014
  H      -5.374821      0.983248      0.581959
  H      -4.914978      1.589137     -1.017969
  C      -3.314112      0.695901      0.072603
  C      -2.482610      0.712030      1.353112
  H      -1.838989     -0.161703      1.256681
  C      -3.332662      0.565018      2.618734
  H      -1.127193      2.124629      3.438090
  H      -3.936694      1.453736      2.813440
  H      -4.006821     -0.290822      2.543882
  C      -1.598623      1.975421      1.346642
  H      -2.241365      2.861102      1.360631
  H      -1.057732      2.004575      0.395978
  C      -0.580073      2.107829      2.490513
  H      -2.700862      0.400483      3.491208
  C       0.159487      3.443262      2.373808
  H      -0.535808      4.285392      2.376605
  H       0.852431      3.582508      3.205994
  H       0.738537      3.493086      1.447856
  C       0.411411      0.943113      2.540035
  H       1.145082      1.095077      3.334258
  H      -0.080744     -0.011252      2.730685
  H       0.956992      0.852331      1.596895
  O      -2.952324      0.067440     -0.870196
25
Coordinates from ORCA-job 4 Relaxed Surface Scan Step 23
  C      -4.655679      1.576012      0.157104
  H      -4.485057      2.524953      0.665564
  H      -5.387630      1.017470      0.744047
  H      -5.064423      1.754260     -0.834774
  C      -3.384711      0.762969      0.029002
  C      -2.443760      0.665952      1.227039
  H      -1.866660     -0.235284      1.024227
  C      -3.167633      0.478405      2.563539
  H      -1.332741      2.205261      3.302437
  H      -3.724198      1.367233      2.867570
  H      -3.868142     -0.357872      2.515469
  C      -1.493820      1.887503      1.192144
  H      -2.069755      2.797526      1.003265
  H      -0.835819      1.775561      0.325990
  C      -0.646407      2.126776      2.450354
  H      -2.444184      0.255433      3.350101
  C       0.096202      3.460943      2.340961
  H      -0.597435      4.293102      2.203293
  H       0.679123      3.660656      3.242409
  H       0.786393      3.459666      1.493192
  C       0.337469      0.985628      2.720274
  H       0.912787      1.173514      3.629209
  H      -0.162995      0.024369      2.842207
  H       1.046607      0.883942      1.894483
  O      -3.112668      0.218490     -0.992795
25
Coordinates from ORCA-job 4 Relaxed Surface Scan Step 24
  C      -4.603399      1.777747      0.330386
  H      -4.271255      2.653052      0.888518
  H      -5.350560      1.264626      0.939467
  H      -5.067785      2.085489     -0.603687
  C      -3.465768      0.824135      0.029057
  C      -2.423083      0.561414      1.111716
  H      -1.953005     -0.363658      0.785033
  C      -3.044978      0.290906      2.486601
  H      -1.523321      2.234280      3.140889
  H      -3.561625      1.157100      2.901987
  H      -3.763911     -0.528722      2.424005
  C      -1.373308      1.714267      1.068570
  H      -1.823607      2.611431      0.639479
  H      -0.593933      1.433813      0.355737
  C      -0.722184      2.126577      2.398922
  H      -2.266471     -0.005623      3.192366
  C      -0.051074      3.495958      2.258637
  H      -0.774246      4.269409      1.991633
  H       0.426228      3.796578      3.193655
  H       0.719750      3.479622      1.483554
  C       0.292335      1.093837      2.898888
  H       0.665933      1.357846      3.890559
  H      -0.125126      0.088651      2.959833
  H       1.150814      1.047344      2.223733
  O      -3.381557      0.296386     -1.033229
