26
Coordinates from ORCA-job 5 Relaxed Surface Scan Step 1
  C       1.095353     -1.382651     -1.189216
  H       1.187960     -0.736333     -2.067549
  C       0.521565     -0.539699     -0.035751
  H       0.496160     -1.163815      0.863934
  H       1.255928      0.244762      0.167458
  C      -0.858523      0.150982     -0.170698
  H      -0.812596      0.987092      0.537849
  C       2.514190     -1.835132     -0.826397
  H       2.975290     -2.383491     -1.650675
  H       3.157261     -0.983899     -0.593470
  H       2.506911     -2.493884      0.046496
  C      -2.021843     -0.737684      0.288167
  H      -2.952214     -0.172171      0.354108
  H      -2.195385     -1.575827     -0.388028
  H      -1.825099     -1.148846      1.280322
  C       0.243456     -2.594367     -1.575802
  H       0.083621     -3.252313     -0.717094
  H      -0.733828     -2.309567     -1.962843
  H       0.741057     -3.180604     -2.351524
  C      -1.103002      0.766680     -1.558349
  H      -0.192779      1.269968     -1.889957
  H      -1.284753     -0.026174     -2.288885
  C      -2.252418      1.771161     -1.618669
  H      -2.320197      2.218504     -2.612424
  H      -3.217367      1.309169     -1.405315
  H      -2.106608      2.582394     -0.901026
26
Coordinates from ORCA-job 5 Relaxed Surface Scan Step 2
  C       1.145550     -1.339654     -1.191626
  H       1.321759     -0.619348     -1.996502
  C       0.485447     -0.598278     -0.016251
  H       0.368060     -1.316916      0.801091
  H       1.217206      0.133261      0.335259
  C      -0.875778      0.141254     -0.180360
  H      -0.769576      1.043392      0.433194
  C       2.526167     -1.845123     -0.757529
  H       3.040049     -2.341274     -1.583723
  H       3.161824     -1.025579     -0.415905
  H       2.444150     -2.565080      0.061434
  C      -2.027388     -0.677144      0.417162
  H      -2.975930     -0.140606      0.369654
  H      -2.156498     -1.624632     -0.111352
  H      -1.837693     -0.908422      1.467202
  C       0.314996     -2.502814     -1.739897
  H       0.138399     -3.251845     -0.962841
  H      -0.654884     -2.182710     -2.116942
  H       0.837310     -2.998432     -2.561238
  C      -1.220895      0.624751     -1.602101
  H      -0.320255      0.941706     -2.125372
  H      -1.621779     -0.205774     -2.187925
  C      -2.217590      1.782505     -1.638887
  H      -2.416734      2.087327     -2.668344
  H      -3.175419      1.520067     -1.187201
  H      -1.828358      2.653625     -1.106337
26
Coordinates from ORCA-job 5 Relaxed Surface Scan Step 3
  C       1.148385     -1.335391     -1.199630
  H       1.276672     -0.504753     -1.896775
  C       0.331455     -0.861379      0.020366
  H      -0.033252     -1.759720      0.527138
  H       1.025066     -0.405018      0.730005
  C      -0.855994      0.142000     -0.153090
  H      -0.528554      1.086334      0.292753
  C       2.548795     -1.770308     -0.755860
  H       3.134258     -2.138608     -1.601205
  H       3.098847     -0.941201     -0.305967
  H       2.495132     -2.573682     -0.015670
  C      -2.056694     -0.334941      0.671957
  H      -2.850475      0.411144      0.717163
  H      -2.480242     -1.251962      0.252089
  H      -1.756545     -0.551196      1.699490
  C       0.464434     -2.481047     -1.953415
  H       0.389716     -3.367808     -1.317775
  H      -0.543164     -2.224343     -2.277454
  H       1.035030     -2.759852     -2.842269
  C      -1.248030      0.490371     -1.599520
  H      -0.347060      0.754372     -2.156494
  H      -1.675033     -0.382035     -2.099635
  C      -2.228972      1.656212     -1.720797
  H      -2.382945      1.917443     -2.769725
  H      -3.207428      1.422959     -1.299296
  H      -1.851261      2.546665     -1.211720
26
Coordinates from ORCA-job 5 Relaxed Surface Scan Step 4
  C       1.051662     -1.441344     -1.273705
  H       0.996505     -0.593657     -1.960604
  C      -0.032618     -1.265389     -0.179210
  H      -0.739995     -2.099249     -0.223699
  H       0.437979     -1.349019      0.803936
  C      -0.833396      0.052371     -0.187609
  H      -0.148696      0.863750      0.088624
  C       2.459930     -1.447060     -0.673860
  H       3.223019     -1.521859     -1.452029
  H       2.651910     -0.532698     -0.107554
  H       2.594241     -2.292565      0.006392
  C      -1.910885     -0.006059      0.900229
  H      -2.400074      0.957370      1.046318
  H      -2.683403     -0.738446      0.649010
  H      -1.478194     -0.298874      1.859168
  C       0.810050     -2.698769     -2.113000
  H       0.860834     -3.600042     -1.495505
  H      -0.174889     -2.676120     -2.584219
  H       1.556204     -2.796502     -2.904983
  C      -1.415449      0.386565     -1.570387
  H      -0.598902      0.412081     -2.296526
  H      -2.079486     -0.426191     -1.885948
  C      -2.166633      1.713744     -1.655223
  H      -2.453116      1.926517     -2.687086
  H      -3.080127      1.712742     -1.059239
  H      -1.544329      2.542960     -1.308630
26
Coordinates from ORCA-job 5 Relaxed Surface Scan Step 5
  C       1.055200     -1.437883     -1.283411
  H       1.046083     -0.541268     -1.909258
  C      -0.149467     -1.363832     -0.312594
  H      -0.890395     -2.127861     -0.567871
  H       0.195525     -1.620131      0.692516
  C      -0.856577      0.000318     -0.243798
  H      -0.082239      0.769711     -0.134419
  C       2.382767     -1.432780     -0.521321
  H       3.234366     -1.429380     -1.205553
  H       2.468425     -0.552212      0.119712
  H       2.471473     -2.316508      0.116310
  C      -1.754410      0.070498      0.994937
  H      -2.257826      1.033805      1.083177
  H      -2.524644     -0.705380      0.963967
  H      -1.173020     -0.077369      1.907277
  C       0.966159     -2.644768     -2.219676
  H       0.987679     -3.581970     -1.656296
  H       0.040602     -2.628879     -2.799078
  H       1.800824     -2.662704     -2.924316
  C      -1.636900      0.297327     -1.535276
  H      -1.004477      0.068772     -2.395663
  H      -2.486921     -0.391033     -1.596138
  C      -2.135855      1.733754     -1.676855
  H      -2.599929      1.886788     -2.653276
  H      -2.880656      1.989178     -0.921811
  H      -1.313647      2.448066     -1.586622
26
Coordinates from ORCA-job 5 Relaxed Surface Scan Step 6
  C       1.052672     -1.491270     -1.340452
  H       1.065031     -0.643852     -2.030609
  C      -0.270376     -1.443482     -0.547343
  H      -1.016435     -2.075113     -1.039100
  H      -0.098916     -1.904868      0.429306
  C      -0.865676     -0.032625     -0.348026
  H      -0.036392      0.684855     -0.352479
  C       2.259291     -1.330735     -0.412432
  H       3.190682     -1.264637     -0.979350
  H       2.178757     -0.427648      0.196754
  H       2.342814     -2.182216      0.268489
  C      -1.569723      0.076835      1.007539
  H      -1.982400      1.071387      1.179567
  H      -2.391826     -0.641081      1.079388
  H      -0.875500     -0.133258      1.823723
  C       1.168174     -2.766758     -2.176498
  H       1.118297     -3.658091     -1.544311
  H       0.360161     -2.833896     -2.908008
  H       2.114784     -2.800098     -2.720835
  C      -1.800416      0.343956     -1.510739
  H      -1.322854      0.065387     -2.451755
  H      -2.706636     -0.267623     -1.445485
  C      -2.179158      1.820915     -1.590209
  H      -2.901554      1.993347     -2.390661
  H      -2.627845      2.184619     -0.664874
  H      -1.302817      2.440206     -1.796940
26
Coordinates from ORCA-job 5 Relaxed Surface Scan Step 7
  C       1.056667     -1.551873     -1.409363
  H       1.122391     -0.814172     -2.216284
  C      -0.354087     -1.470038     -0.804185
  H      -1.057041     -1.936553     -1.499720
  H      -0.373337     -2.093914      0.094732
  C      -0.850528     -0.040499     -0.471679
  H      -0.000477      0.644669     -0.551801
  C       2.142842     -1.215958     -0.383765
  H       3.132752     -1.222657     -0.845231
  H       1.997009     -0.231028      0.062280
  H       2.150872     -1.949294      0.427541
  C      -1.375886      0.047146      0.964253
  H      -1.679928      1.059972      1.231356
  H      -2.239723     -0.609017      1.104220
  H      -0.608761     -0.261740      1.677396
  C       1.307574     -2.930302     -2.024502
  H       1.225275     -3.717737     -1.269988
  H       0.585545     -3.150673     -2.813557
  H       2.306914     -2.993914     -2.460688
  C      -1.893367      0.425715     -1.501118
  H      -1.508394      0.218888     -2.503061
  H      -2.794394     -0.188535     -1.396451
  C      -2.272839      1.902459     -1.427504
  H      -2.958909      2.164045     -2.235671
  H      -2.766494      2.157479     -0.488721
  H      -1.391535      2.541788     -1.523830
26
Coordinates from ORCA-job 5 Relaxed Surface Scan Step 8
  C       1.090181     -1.575677     -1.401207
  H       1.249144     -0.847048     -2.204919
  C      -0.371723     -1.448830     -0.944570
  H      -1.009206     -1.835857     -1.743155
  H      -0.529117     -2.121623     -0.095355
  C      -0.830718     -0.014200     -0.577467
  H       0.007799      0.667373     -0.753700
  C       2.084045     -1.259212     -0.280876
  H       3.112657     -1.319072     -0.643169
  H       1.939505     -0.257655      0.126523
  H       1.981569     -1.971259      0.542930
  C      -1.201778      0.094716      0.904758
  H      -1.428579      1.120492      1.198094
  H      -2.076770     -0.520187      1.134173
  H      -0.382320     -0.251195      1.537648
  C       1.358825     -2.965974     -1.981104
  H       1.194850     -3.743612     -1.229845
  H       0.701061     -3.178103     -2.826606
  H       2.389566     -3.056672     -2.330839
  C      -1.969918      0.443838     -1.502867
  H      -1.652828      0.281886     -2.537349
  H      -2.837995     -0.206864     -1.350146
  C      -2.394918      1.901879     -1.350598
  H      -3.138808      2.165931     -2.104996
  H      -2.837987      2.104208     -0.374511
  H      -1.544397      2.576974     -1.476183
26
Coordinates from ORCA-job 5 Relaxed Surface Scan Step 9
  C       1.124345     -1.591866     -1.387181
  H       1.376018     -0.877522     -2.180143
  C      -0.369871     -1.412559     -1.072906
  H      -0.927879     -1.723038     -1.959317
  H      -0.655014     -2.120642     -0.287160
  C      -0.810593      0.017032     -0.673156
  H       0.001865      0.706384     -0.928030
  C       2.036148     -1.297751     -0.193836
  H       3.085108     -1.431898     -0.466911
  H       1.922835     -0.275225      0.167945
  H       1.822849     -1.973176      0.639467
  C      -1.058214      0.131424      0.835105
  H      -1.235686      1.162323      1.144032
  H      -1.929459     -0.460279      1.130349
  H      -0.204794     -0.236146      1.405866
  C       1.391532     -2.996301     -1.933455
  H       1.150134     -3.760281     -1.189139
  H       0.790669     -3.198586     -2.822606
  H       2.441603     -3.121280     -2.206613
  C      -2.034501      0.454230     -1.495295
  H      -1.793532      0.327317     -2.554804
  H      -2.864975     -0.230945     -1.291846
  C      -2.497172      1.891844     -1.273899
  H      -3.300363      2.147434     -1.967984
  H      -2.877889      2.053688     -0.264577
  H      -1.681023      2.600072     -1.439243
26
Coordinates from ORCA-job 5 Relaxed Surface Scan Step 10
  C       1.160543     -1.598127     -1.361610
  H       1.504540     -0.885497     -2.119487
  C      -0.348752     -1.362831     -1.174147
  H      -0.821524     -1.602370     -2.130029
  H      -0.742043     -2.095202     -0.459616
  C      -0.790472      0.056464     -0.750295
  H      -0.018473      0.763053     -1.078724
  C       2.001875     -1.363178     -0.105127
  H       3.053161     -1.582627     -0.303901
  H       1.947115     -0.330183      0.238740
  H       1.679669     -2.009642      0.715895
  C      -0.940347      0.184798      0.770788
  H      -1.105595      1.218612      1.076506
  H      -1.791300     -0.405610      1.122456
  H      -0.057330     -0.170756      1.298903
  C       1.406837     -3.005359     -1.912259
  H       1.087485     -3.768707     -1.197215
  H       0.857822     -3.171786     -2.841426
  H       2.466677     -3.168940     -2.118900
  C      -2.091849      0.445527     -1.473292
  H      -1.938711      0.318103     -2.547869
  H      -2.877691     -0.266392     -1.196996
  C      -2.586203      1.867895     -1.222409
  H      -3.448975      2.090022     -1.853644
  H      -2.893623      2.024252     -0.187672
  H      -1.810696      2.602736     -1.454006
26
Coordinates from ORCA-job 5 Relaxed Surface Scan Step 11
  C       1.195842     -1.593798     -1.316912
  H       1.626402     -0.850424     -1.995558
  C      -0.315592     -1.307652     -1.229061
  H      -0.714333     -1.496391     -2.229797
  H      -0.786829     -2.051816     -0.575660
  C      -0.774010      0.103753     -0.804314
  H      -0.060228      0.827602     -1.219200
  C       1.964318     -1.493499      0.003534
  H       2.998435     -1.815656     -0.136320
  H       1.996623     -0.474166      0.386100
  H       1.521743     -2.131005      0.773849
  C      -0.826696      0.286054      0.718098
  H      -1.042218      1.319807      0.990176
  H      -1.613167     -0.340001      1.149292
  H       0.106925      0.015817      1.204104
  C       1.417869     -2.971909     -1.948668
  H       1.016401     -3.765027     -1.311559
  H       0.928470     -3.049468     -2.921638
  H       2.481287     -3.172382     -2.094982
  C      -2.147951      0.409246     -1.429468
  H      -2.091340      0.220471     -2.503316
  H      -2.879484     -0.308008     -1.040850
  C      -2.670224      1.828390     -1.218268
  H      -3.592325      1.983628     -1.781986
  H      -2.892251      2.039294     -0.171580
  H      -1.945529      2.571395     -1.561353
26
Coordinates from ORCA-job 5 Relaxed Surface Scan Step 12
  C       1.197779     -1.593250     -1.170643
  H       1.686228     -0.707275     -1.592410
  C      -0.319366     -1.308133     -1.099360
  H      -0.754008     -1.620381     -2.050346
  H      -0.778615     -1.958569     -0.345753
  C      -0.768827      0.147728     -0.859312
  H      -0.139328      0.794424     -1.480748
  C       1.839819     -1.892269      0.188164
  H       2.911263     -2.073022      0.076922
  H       1.719719     -1.079397      0.901463
  H       1.399202     -2.788924      0.632792
  C      -0.603060      0.606482      0.592479
  H      -0.929635      1.637985      0.724973
  H      -1.189268     -0.018613      1.272217
  H       0.436092      0.563608      0.913217
  C       1.471745     -2.757117     -2.129724
  H       0.967031     -3.667718     -1.794467
  H       1.117706     -2.534121     -3.138264
  H       2.540061     -2.975320     -2.192606
  C      -2.215253      0.319920     -1.358255
  H      -2.253748     -0.016305     -2.398770
  H      -2.872392     -0.354655     -0.798151
  C      -2.776733      1.738618     -1.295852
  H      -3.751221      1.784443     -1.786127
  H      -2.914397      2.088272     -0.272081
  H      -2.118653      2.447845     -1.804699
26
Coordinates from ORCA-job 5 Relaxed Surface Scan Step 13
  C       1.184169     -1.596309     -1.089431
  H       1.698199     -0.663134     -1.346051
  C      -0.338559     -1.321694     -1.091233
  H      -0.752010     -1.674851     -2.037558
  H      -0.822226     -1.931011     -0.319401
  C      -0.776354      0.144981     -0.925392
  H      -0.216146      0.735839     -1.658947
  C       1.704571     -2.065406      0.273372
  H       2.791253     -2.176434      0.260354
  H       1.452871     -1.372188      1.075334
  H       1.276767     -3.037511      0.533688
  C      -0.450462      0.712601      0.458327
  H      -0.746910      1.758283      0.543147
  H      -0.966164      0.154520      1.245223
  H       0.618810      0.670170      0.664758
  C       1.555657     -2.619690     -2.167158
  H       1.042552     -3.570613     -1.998084
  H       1.278678     -2.265890     -3.162512
  H       2.629700     -2.818862     -2.171262
  C      -2.266123      0.280826     -1.282378
  H      -2.415046     -0.150393     -2.277273
  H      -2.859056     -0.333057     -0.595370
  C      -2.818359      1.704393     -1.292309
  H      -3.843461      1.713373     -1.668026
  H      -2.835479      2.151214     -0.297488
  H      -2.224733      2.355098     -1.939667
26
Coordinates from ORCA-job 5 Relaxed Surface Scan Step 14
  C       1.178401     -1.595151     -1.052237
  H       1.710239     -0.649236     -1.196360
  C      -0.339388     -1.313158     -1.149453
  H      -0.693128     -1.630519     -2.133617
  H      -0.874328     -1.941953     -0.428894
  C      -0.779961      0.149901     -0.965722
  H      -0.295476      0.732599     -1.759892
  C       1.585799     -2.154939      0.314471
  H       2.669221     -2.277786      0.381745
  H       1.274562     -1.506903      1.133860
  H       1.131071     -3.135558      0.479891
  C      -0.348679      0.748380      0.376101
  H      -0.649136      1.792988      0.461246
  H      -0.798647      0.204647      1.211628
  H       0.733487      0.719013      0.502775
  C       1.636639     -2.541812     -2.165486
  H       1.119131     -3.503128     -2.101181
  H       1.432537     -2.120795     -3.152314
  H       2.709382     -2.738040     -2.102390
  C      -2.299466      0.260483     -1.176461
  H      -2.563620     -0.288544     -2.083848
  H      -2.811057     -0.255519     -0.356694
  C      -2.845363      1.681483     -1.297798
  H      -3.912129      1.664080     -1.529811
  H      -2.724712      2.253014     -0.376620
  H      -2.343239      2.230710     -2.098278
26
Coordinates from ORCA-job 5 Relaxed Surface Scan Step 15
  C       1.176876     -1.593557     -1.032804
  H       1.732062     -0.652887     -1.076230
  C      -0.324329     -1.279033     -1.225752
  H      -0.607162     -1.518056     -2.256461
  H      -0.915366     -1.950343     -0.592897
  C      -0.773939      0.174399     -0.977347
  H      -0.365959      0.776005     -1.801884
  C       1.467323     -2.230380      0.330058
  H       2.539694     -2.383815      0.471275
  H       1.110316     -1.613123      1.154685
  H       0.979702     -3.205653      0.412852
  C      -0.263120      0.775141      0.336002
  H      -0.607801      1.803093      0.455778
  H      -0.625630      0.205282      1.195491
  H       0.825450      0.797346      0.384473
  C       1.704856     -2.487701     -2.157815
  H       1.168819     -3.440601     -2.185911
  H       1.583940     -2.010664     -3.132777
  H       2.766297     -2.708387     -2.024196
  C      -2.309630      0.252591     -1.047861
  H      -2.667218     -0.439358     -1.812924
  H      -2.721673     -0.121758     -0.104679
  C      -2.878319      1.639658     -1.335157
  H      -3.968876      1.609688     -1.380040
  H      -2.605025      2.365128     -0.567202
  H      -2.519147      2.021241     -2.294015
26
Coordinates from ORCA-job 5 Relaxed Surface Scan Step 16
  C       1.168160     -1.609106     -0.985655
  H       1.739702     -0.685968     -0.883134
  C      -0.307276     -1.245901     -1.274088
  H      -0.530426     -1.446392     -2.329778
  H      -0.948565     -1.924472     -0.702559
  C      -0.760346      0.208723     -1.007778
  H      -0.447343      0.802805     -1.878901
  C       1.320822     -2.369884      0.335408
  H       2.372255     -2.565018      0.558609
  H       0.902908     -1.811637      1.174347
  H       0.806397     -3.333887      0.291041
  C      -0.155964      0.861587      0.240538
  H      -0.559728      1.865539      0.381305
  H      -0.391325      0.287673      1.139959
  H       0.927391      0.960874      0.180236
  C       1.783996     -2.408174     -2.136891
  H       1.243369     -3.345039     -2.298462
  H       1.753885     -1.842983     -3.071013
  H       2.827424     -2.658677     -1.932550
  C      -2.299197      0.252155     -0.924600
  H      -2.716525     -0.554913     -1.527984
  H      -2.596308      0.017288      0.102898
  C      -2.931985      1.575370     -1.345081
  H      -4.017837      1.542172     -1.234964
  H      -2.568760      2.411659     -0.744707
  H      -2.712584      1.800464     -2.391533
26
Coordinates from ORCA-job 5 Relaxed Surface Scan Step 17
  C       1.046150     -1.751567     -0.530136
  H       1.505639     -1.101635      0.221771
  C      -0.435124     -1.364874     -0.636197
  H      -0.916191     -2.032692     -1.363554
  H      -0.905277     -1.576437      0.330147
  C      -0.778013      0.085981     -1.028445
  H      -0.606058      0.193083     -2.106735
  C       1.181258     -3.189317     -0.020986
  H       2.230319     -3.466899      0.103031
  H       0.687731     -3.316919      0.944813
  H       0.731144     -3.899709     -0.719946
  C       0.076760      1.132211     -0.304833
  H      -0.257948      2.143285     -0.541327
  H       0.007891      1.008638      0.779555
  H       1.129744      1.071552     -0.578783
  C       1.800522     -1.578441     -1.850572
  H       1.370465     -2.215565     -2.628692
  H       1.770687     -0.550574     -2.213492
  H       2.850892     -1.856879     -1.740134
  C      -2.274022      0.340154     -0.762499
  H      -2.832419     -0.579881     -0.944108
  H      -2.406949      0.549830      0.304214
  C      -2.894272      1.467129     -1.583425
  H      -3.949056      1.596639     -1.332538
  H      -2.398457      2.423747     -1.409209
  H      -2.833276      1.253397     -2.653260
26
Coordinates from ORCA-job 5 Relaxed Surface Scan Step 18
  C       1.015663     -1.755191     -0.521529
  H       1.374539     -1.118872      0.295089
  C      -0.448900     -1.377605     -0.775023
  H      -0.829511     -1.989597     -1.606794
  H      -1.014299     -1.678709      0.111735
  C      -0.789112      0.101859     -1.081999
  H      -0.711240      0.241913     -2.168307
  C       1.111123     -3.202965     -0.030936
  H       2.145893     -3.478580      0.184213
  H       0.531096     -3.352966      0.882101
  H       0.732455     -3.900554     -0.783148
  C       0.133103      1.125667     -0.408572
  H      -0.216269      2.140580     -0.607162
  H       0.142505      0.991480      0.676106
  H       1.162277      1.066152     -0.759393
  C       1.906301     -1.555237     -1.750450
  H       1.592556     -2.218301     -2.561693
  H       1.870960     -0.534578     -2.131215
  H       2.949272     -1.785862     -1.522091
  C      -2.249151      0.386111     -0.667186
  H      -2.816488     -0.544622     -0.669008
  H      -2.253250      0.709626      0.378894
  C      -2.967389      1.426722     -1.520185
  H      -3.977600      1.610355     -1.148560
  H      -2.440827      2.383389     -1.522715
  H      -3.051569      1.094039     -2.557511
26
Coordinates from ORCA-job 5 Relaxed Surface Scan Step 19
  C       0.973370     -1.721327     -0.499938
  H       1.146279     -1.022709      0.323397
  C      -0.407120     -1.420088     -1.113191
  H      -0.462807     -1.943548     -2.074505
  H      -1.148464     -1.905300     -0.475987
  C      -0.868563      0.058732     -1.327182
  H      -1.013032      0.198352     -2.405221
  C       0.979080     -3.128303      0.107845
  H       1.957404     -3.372309      0.527861
  H       0.241657     -3.219446      0.907997
  H       0.745353     -3.884315     -0.647059
  C       0.113021      1.141232     -0.860715
  H      -0.261254      2.131650     -1.120319
  H       0.251371      1.119610      0.222524
  H       1.093006      1.045039     -1.322858
  C       2.117229     -1.596511     -1.511760
  H       2.024728     -2.364830     -2.284508
  H       2.133228     -0.631080     -2.015572
  H       3.086928     -1.732174     -1.027467
  C      -2.241623      0.265984     -0.658506
  H      -2.872682     -0.595426     -0.881453
  H      -2.105108      0.252132      0.428878
  C      -2.992183      1.532850     -1.060888
  H      -3.983255      1.552101     -0.602978
  H      -2.475394      2.441439     -0.749554
  H      -3.129032      1.582501     -2.144179
26
Coordinates from ORCA-job 5 Relaxed Surface Scan Step 20
  C       1.165254     -1.483052     -0.820801
  H       1.816661     -0.644324     -0.556413
  C       0.117806     -0.975342     -1.829568
  H       0.668268     -0.689471     -2.730216
  H      -0.513793     -1.818120     -2.130377
  C      -0.797074      0.218673     -1.469784
  H      -1.175628      0.574586     -2.434198
  C       0.581299     -2.044391      0.478495
  H       1.371093     -2.478134      1.095791
  H       0.089762     -1.278607      1.076522
  H      -0.149866     -2.831968      0.276643
  C      -0.021571      1.385748     -0.850048
  H      -0.630111      2.289469     -0.804173
  H       0.309986      1.161603      0.166223
  H       0.864804      1.623371     -1.442616
  C       2.048275     -2.537458     -1.497143
  H       1.463371     -3.415922     -1.783942
  H       2.519289     -2.144182     -2.400354
  H       2.842993     -2.873848     -0.827902
  C      -2.044993     -0.172693     -0.658137
  H      -2.475870     -1.072476     -1.106730
  H      -1.770628     -0.446056      0.362171
  C      -3.128653      0.902936     -0.605404
  H      -4.016824      0.528817     -0.092128
  H      -2.798976      1.795722     -0.071726
  H      -3.432732      1.209371     -1.609523
26
Coordinates from ORCA-job 5 Relaxed Surface Scan Step 21
  C       1.101483     -1.524921     -0.760974
  H       1.661042     -0.686676     -0.335574
  C       0.107857     -0.971181     -1.800779
  H       0.694573     -0.670081     -2.673518
  H      -0.527865     -1.794223     -2.145463
  C      -0.795519      0.233903     -1.456948
  H      -1.258441      0.499627     -2.414128
  C       0.444156     -2.283161      0.396432
  H       1.204473     -2.714590      1.051256
  H      -0.186215     -1.643783      1.010914
  H      -0.175180     -3.104591      0.025552
  C       0.013633      1.454051     -1.004434
  H      -0.607352      2.349515     -0.956427
  H       0.449229      1.305863     -0.013902
  H       0.830846      1.662965     -1.698625
  C       2.118474     -2.432025     -1.462729
  H       1.624193     -3.288200     -1.930662
  H       2.660396     -1.895120     -2.243878
  H       2.854053     -2.821281     -0.755615
  C      -1.958413     -0.079478     -0.498067
  H      -2.336966     -1.082436     -0.712271
  H      -1.600208     -0.104598      0.533288
  C      -3.123510      0.904855     -0.588154
  H      -3.927486      0.615712      0.091818
  H      -2.825346      1.920960     -0.324339
  H      -3.539767      0.933153     -1.598110
26
Coordinates from ORCA-job 5 Relaxed Surface Scan Step 22
  C       0.903527     -1.591376     -0.651685
  H       1.085874     -0.761930      0.036664
  C       0.001760     -1.092712     -1.807136
  H       0.630415     -0.872525     -2.674125
  H      -0.652841     -1.911329     -2.122669
  C      -0.862058      0.161399     -1.560726
  H      -1.456729      0.283436     -2.474013
  C       0.253558     -2.720540      0.155037
  H       0.888568     -3.016649      0.993206
  H      -0.714942     -2.430972      0.561638
  H       0.098908     -3.604115     -0.470440
  C      -0.000884      1.422057     -1.419684
  H      -0.609546      2.326803     -1.413986
  H       0.582722      1.415815     -0.496196
  H       0.699092      1.509120     -2.253405
  C       2.268164     -2.043920     -1.179879
  H       2.158258     -2.856918     -1.903257
  H       2.791683     -1.225561     -1.678657
  H       2.907338     -2.404608     -0.370812
  C      -1.859648     -0.001804     -0.403500
  H      -2.368988     -0.962132     -0.516302
  H      -1.319057     -0.055102      0.546159
  C      -2.919832      1.094223     -0.310469
  H      -3.642270      0.864346      0.475302
  H      -2.488361      2.068800     -0.077991
  H      -3.472572      1.190452     -1.248412
26
Coordinates from ORCA-job 5 Relaxed Surface Scan Step 23
  C       0.641957     -1.819055     -0.506136
  H       0.345548     -1.370023      0.445801
  C      -0.336609     -1.348324     -1.604909
  H       0.150941     -1.465689     -2.578759
  H      -1.184897     -2.037777     -1.619477
  C      -0.936125      0.072027     -1.526231
  H      -1.616889      0.129503     -2.383702
  C       0.546956     -3.338702     -0.332539
  H       1.242291     -3.694721      0.430838
  H      -0.458637     -3.642613     -0.034694
  H       0.786913     -3.855720     -1.266120
  C       0.087148      1.198424     -1.705357
  H      -0.407105      2.153727     -1.886455
  H       0.716972      1.321757     -0.822101
  H       0.740106      1.005652     -2.558902
  C       2.096693     -1.421949     -0.780026
  H       2.455258     -1.882108     -1.705056
  H       2.226504     -0.345625     -0.876099
  H       2.747965     -1.760059      0.029168
  C      -1.799953      0.265864     -0.268330
  H      -2.423371     -0.622753     -0.134058
  H      -1.159970      0.320833      0.616834
  C      -2.708822      1.493272     -0.297115
  H      -3.345858      1.521267      0.589183
  H      -2.142472      2.425491     -0.318154
  H      -3.362402      1.481555     -1.172941
26
Coordinates from ORCA-job 5 Relaxed Surface Scan Step 24
  C       0.518629     -1.923361     -0.452779
  H       0.038217     -1.734864      0.511803
  C      -0.421635     -1.425498     -1.567405
  H       0.068130     -1.589576     -2.533578
  H      -1.290180     -2.090430     -1.564815
  C      -0.977206      0.016048     -1.541057
  H      -1.761519      0.014128     -2.306135
  C       0.689995     -3.441392     -0.578363
  H       1.317427     -3.835251      0.223988