23
Coordinates from ORCA-job 6 Relaxed Surface Scan Step 1
  C       2.329223      0.128375     -2.192133
  H       3.212340      0.000450     -1.565194
  H       2.565782     -0.290184     -3.172461
  H       2.166812      1.201403     -2.322787
  C       1.092393     -0.550947     -1.606231
  H       0.296633     -0.495134     -2.350750
  H       1.302086     -1.615415     -1.466636
  C       0.588336      0.061545     -0.287726
  H       0.457915      1.130941     -0.481163
  C      -0.792256     -0.482372      0.198267
  H      -1.495960      0.352970      0.254228
  H      -0.684222     -0.832676      1.228281
  C      -1.463558     -1.606475     -0.595934
  H      -1.665735     -1.281896     -1.618848
  H      -0.792016     -2.464807     -0.675498
  C       1.624698     -0.063690      0.834716
  H       1.260330      0.406723      1.750321
  H       1.829068     -1.114241      1.061955
  H       2.571253      0.413700      0.580187
  C      -2.773313     -2.059630      0.043399
  H      -3.241508     -2.856130     -0.538409
  H      -2.611677     -2.439594      1.055125
  H      -3.487695     -1.235447      0.111388
23
Coordinates from ORCA-job 6 Relaxed Surface Scan Step 2
  C       2.286828      0.244074     -2.226556
  H       3.171891      0.183999     -1.591646
  H       2.554732     -0.178842     -3.196936
  H       2.060055      1.302090     -2.379449
  C       1.090938     -0.494372     -1.628638
  H       0.275205     -0.464151     -2.349941
  H       1.342247     -1.553067     -1.516107
  C       0.607426      0.064714     -0.277954
  H       0.587289      1.156975     -0.381045
  C      -0.834220     -0.368847      0.113055
  H      -1.528595      0.442526     -0.112335
  H      -0.875501     -0.477184      1.200455
  C      -1.393071     -1.648005     -0.517314
  H      -1.528113     -1.499437     -1.593583
  H      -0.681732     -2.470817     -0.404315
  C       1.592464     -0.276858      0.845766
  H       1.304159      0.211134      1.778960
  H       1.614687     -1.354987      1.029407
  H       2.609727      0.040107      0.613075
  C      -2.731102     -2.058501      0.091352
  H      -3.127483     -2.953524     -0.392331
  H      -2.633299     -2.273640      1.158142
  H      -3.475605     -1.265917     -0.017966
23
Coordinates from ORCA-job 6 Relaxed Surface Scan Step 3
  C       2.276572      0.312671     -2.231746
  H       3.160559      0.197859     -1.602418
  H       2.532375     -0.066068     -3.223408
  H       2.076171      1.382465     -2.328765
  C       1.065031     -0.424966     -1.666259
  H       0.239098     -0.328138     -2.371964
  H       1.284502     -1.495773     -1.620837
  C       0.611498      0.062463     -0.278728
  H       0.649490      1.158860     -0.298542
  C      -0.851251     -0.315988      0.052535
  H      -1.523661      0.433569     -0.371760
  H      -0.988068     -0.238516      1.135489
  C      -1.327745     -1.695943     -0.409267
  H      -1.350867     -1.723958     -1.503527
  H      -0.619126     -2.467854     -0.095317
  C       1.565199     -0.413740      0.822534
  H       1.297617      0.022918      1.786822
  H       1.532178     -1.501177      0.930623
  H       2.599483     -0.135839      0.615139
  C      -2.714718     -2.046247      0.122428
  H      -3.044622     -3.020524     -0.243810
  H      -2.724277     -2.081834      1.214452
  H      -3.456510     -1.306773     -0.189578
23
Coordinates from ORCA-job 6 Relaxed Surface Scan Step 4
  C       2.289900      0.359427     -2.223741
  H       3.168382      0.136652     -1.616008
  H       2.516776      0.052725     -3.246844
  H       2.155204      1.443832     -2.226539
  C       1.038903     -0.350271     -1.710717
  H       0.216034     -0.146208     -2.400524
  H       1.198303     -1.431798     -1.751667
  C       0.609787      0.052512     -0.289669
  H       0.669332      1.145928     -0.234798
  C      -0.860363     -0.304796      0.005743
  H      -1.507370      0.366316     -0.567697
  H      -1.064293     -0.078091      1.057248
  C      -1.286204     -1.746097     -0.283494
  H      -1.187520     -1.948515     -1.353753
  H      -0.617742     -2.447145      0.223801
  C       1.556801     -0.505128      0.778669
  H       1.261370     -0.169346      1.774932
  H       1.560246     -1.597583      0.783871
  H       2.584425     -0.176470      0.617644
  C      -2.723237     -2.031974      0.143777
  H      -3.009246     -3.059204     -0.091171
  H      -2.853566     -1.889375      1.219249
  H      -3.426995     -1.367925     -0.364217
23
Coordinates from ORCA-job 6 Relaxed Surface Scan Step 5
  C       2.323512      0.377323     -2.204289
  H       3.176873      0.001234     -1.637863
  H       2.516602      0.168098     -3.258411
  H       2.296813      1.463125     -2.083020
  C       1.009317     -0.261152     -1.759523
  H       0.214282      0.081578     -2.428544
  H       1.074945     -1.344097     -1.899025
  C       0.597529      0.052290     -0.311796
  H       0.660317      1.139958     -0.192763
  C      -0.873179     -0.308677     -0.032037
  H      -1.505487      0.271753     -0.711936
  H      -1.124415      0.038230      0.975764
  C      -1.258783     -1.784736     -0.150082
  H      -1.043566     -2.146418     -1.158646
  H      -0.647326     -2.386804      0.526923
  C       1.551466     -0.564815      0.717139
  H       1.211136     -0.361544      1.734991
  H       1.627204     -1.648389      0.602233
  H       2.558467     -0.155893      0.625623
  C      -2.732182     -2.032962      0.161545
  H      -2.983450     -3.091484      0.068801
  H      -2.980214     -1.721594      1.179202
  H      -3.380933     -1.477557     -0.520191
23
Coordinates from ORCA-job 6 Relaxed Surface Scan Step 6
  C       2.355612      0.365280     -2.184133
  H       3.156271     -0.180088     -1.682304
  H       2.518508      0.263867     -3.258998
  H       2.465228      1.423315     -1.932401
  C       0.972533     -0.155028     -1.798586
  H       0.228558      0.345973     -2.426393
  H       0.911494     -1.219497     -2.044264
  C       0.580487      0.066472     -0.328720
  H       0.646217      1.144998     -0.148322
  C      -0.889790     -0.310366     -0.063773
  H      -1.507356      0.168475     -0.830601
  H      -1.193229      0.136153      0.888911
  C      -1.230255     -1.801967     -0.020880
  H      -0.898269     -2.294226     -0.937902
  H      -0.685345     -2.283002      0.794996
  C       1.542210     -0.606524      0.656418
  H       1.187064     -0.495953      1.683637
  H       1.649097     -1.674937      0.455309
  H       2.537407     -0.163066      0.609407
  C      -2.723518     -2.056458      0.166414
  H      -2.940455     -3.125729      0.208681
  H      -3.088596     -1.607654      1.093519
  H      -3.304946     -1.632568     -0.655924
23
Coordinates from ORCA-job 6 Relaxed Surface Scan Step 7
  C       2.376395      0.370597     -2.171919
  H       3.124835     -0.292502     -1.735605
  H       2.524561      0.359791     -3.253616
  H       2.584906      1.384646     -1.820753
  C       0.952637     -0.054597     -1.821082
  H       0.256144      0.569285     -2.393186
  H       0.791453     -1.083486     -2.159469
  C       0.573023      0.071256     -0.335978
  H       0.647133      1.135029     -0.089502
  C      -0.903527     -0.318723     -0.107897
  H      -1.479367      0.041018     -0.966381
  H      -1.281728      0.225848      0.763093
  C      -1.214595     -1.803753      0.096468
  H      -0.785932     -2.402101     -0.710137
  H      -0.741594     -2.157219      1.015559
  C       1.534619     -0.660667      0.605208
  H       1.189846     -0.597037      1.639797
  H       1.628909     -1.718858      0.351076
  H       2.533104     -0.223723      0.571332
  C      -2.713484     -2.080854      0.176045
  H      -2.911560     -3.141583      0.342797
  H      -3.176071     -1.524793      0.995300
  H      -3.220779     -1.790108     -0.747055
23
Coordinates from ORCA-job 6 Relaxed Surface Scan Step 8
  C       2.401301      0.436287     -2.155248
  H       3.133071     -0.275693     -1.770837
  H       2.551493      0.505132     -3.234528
  H       2.632746      1.415301     -1.727286
  C       0.967389      0.019269     -1.839654
  H       0.285973      0.699294     -2.365789
  H       0.782174     -0.979554     -2.250465
  C       0.575922      0.045984     -0.352051
  H       0.654954      1.090181     -0.036513
  C      -0.911797     -0.354670     -0.181784
  H      -1.420124     -0.137656     -1.125980
  H      -1.372302      0.293741      0.569600
  C      -1.226854     -1.803074      0.202215
  H      -0.745985     -2.499943     -0.486719
  H      -0.814281     -2.024980      1.188882
  C       1.531180     -0.743062      0.548486
  H       1.198737     -0.717176      1.588149
  H       1.607010     -1.790858      0.249627
  H       2.535482     -0.319203      0.523224
  C      -2.727061     -2.083673      0.221282
  H      -2.932561     -3.114193      0.517893
  H      -3.244215     -1.427021      0.925324
  H      -3.173323     -1.926964     -0.763732
23
Coordinates from ORCA-job 6 Relaxed Surface Scan Step 9
  C       2.424073      0.560789     -2.123136
  H       3.181555     -0.137864     -1.765306
  H       2.587983      0.695684     -3.194170
  H       2.604070      1.524046     -1.638467
  C       1.005303      0.064654     -1.857752
  H       0.303779      0.736853     -2.364605
  H       0.871671     -0.919883     -2.320470
  C       0.585665     -0.008058     -0.379305
  H       0.666152      1.010517      0.011244
  C      -0.913581     -0.415730     -0.273793
  H      -1.344225     -0.370782     -1.277985
  H      -1.446035      0.338897      0.312002
  C      -1.259609     -1.786470      0.314566
  H      -0.747514     -2.579377     -0.234415
  H      -0.905097     -1.855289      1.345203
  C       1.534453     -0.861874      0.468596
  H       1.214573     -0.893256      1.511000
  H       1.595616     -1.890829      0.107603
  H       2.543309     -0.448577      0.458461
  C      -2.760885     -2.060794      0.290723
  H      -2.990757     -3.036330      0.723899
  H      -3.310907     -1.307572      0.860256
  H      -3.150665     -2.051286     -0.730055
23
Coordinates from ORCA-job 6 Relaxed Surface Scan Step 10
  C       2.429324      0.725051     -2.066815
  H       3.234522      0.085798     -1.702616
  H       2.619207      0.912521     -3.125598
  H       2.502459      1.682573     -1.544591
  C       1.052145      0.095183     -1.874000
  H       0.315325      0.716602     -2.388240
  H       1.022353     -0.878044     -2.377004
  C       0.598733     -0.088067     -0.415106
  H       0.679071      0.891263      0.068367
  C      -0.907132     -0.493395     -0.371637
  H      -1.265080     -0.650118     -1.392658
  H      -1.484357      0.357897      0.000427
  C      -1.300533     -1.726388      0.445205
  H      -0.746318     -2.599329      0.089490
  H      -1.020952     -1.592768      1.492927
  C       1.539481     -1.026884      0.349918
  H       1.229390     -1.154455      1.386803
  H       1.588179     -2.017295     -0.108477
  H       2.552567     -0.624688      0.369731
  C      -2.796005     -2.020050      0.367167
  H      -3.056729     -2.900940      0.957233
  H      -3.385255     -1.181344      0.746036
  H      -3.111466     -2.205656     -0.662466
23
Coordinates from ORCA-job 6 Relaxed Surface Scan Step 11
  C       2.395829      0.939886     -1.963183
  H       3.249395      0.431512     -1.512765
  H       2.657654      1.153990     -3.001403
  H       2.271650      1.897104     -1.450728
  C       1.117112      0.108713     -1.891055
  H       0.337426      0.632018     -2.444213
  H       1.264598     -0.835942     -2.425953
  C       0.616719     -0.210096     -0.470190
  H       0.676740      0.712569      0.120195
  C      -0.881801     -0.617349     -0.495773
  H      -1.159556     -1.002389     -1.480810
  H      -1.479158      0.292655     -0.382056
  C      -1.334679     -1.638025      0.548399
  H      -0.772852     -2.567476      0.408208
  H      -1.092728     -1.280787      1.553631
  C       1.540842     -1.235627      0.198338
  H       1.267102     -1.420235      1.236649
  H       1.522654     -2.193373     -0.328021
  H       2.572503     -0.883042      0.199218
  C      -2.828947     -1.936241      0.471696
  H      -3.123700     -2.675679      1.218987
  H      -3.422754     -1.035412      0.644807
  H      -3.105122     -2.329308     -0.509882
23
Coordinates from ORCA-job 6 Relaxed Surface Scan Step 12
  C       2.363997      1.046865     -1.876726
  H       3.230524      0.555011     -1.432436
  H       2.641521      1.337488     -2.891994
  H       2.177084      1.963020     -1.311159
  C       1.128638      0.149490     -1.891154
  H       0.332031      0.673640     -2.420078
  H       1.334146     -0.744868     -2.489264
  C       0.624919     -0.293814     -0.506124
  H       0.640954      0.582014      0.155860
  C      -0.847238     -0.750329     -0.583706
  H      -1.022466     -1.332519     -1.493721
  H      -1.468649      0.143843     -0.697707
  C      -1.353782     -1.561129      0.608655
  H      -0.793125     -2.499492      0.668511
  H      -1.147666     -1.021152      1.538505
  C       1.562240     -1.349011      0.092391
  H       1.315268     -1.577325      1.128896
  H       1.516814     -2.282481     -0.475808
  H       2.597528     -1.007170      0.079074
  C      -2.845351     -1.870819      0.527038
  H      -3.173721     -2.465721      1.381647
  H      -3.440827     -0.954773      0.512444
  H      -3.083911     -2.433300     -0.379048
23
Coordinates from ORCA-job 6 Relaxed Surface Scan Step 13
  C       2.355704      1.071245     -1.834182
  H       3.231966      0.509243     -1.508330
  H       2.577806      1.469757     -2.826171
  H       2.235514      1.920783     -1.157282
  C       1.092338      0.214152     -1.870424
  H       0.285395      0.814988     -2.296222
  H       1.238455     -0.620835     -2.564286
  C       0.633217     -0.342198     -0.512386
  H       0.613007      0.493044      0.199524
  C      -0.806545     -0.871487     -0.619123
  H      -0.868639     -1.608810     -1.427418
  H      -1.449727     -0.041279     -0.927719
  C      -1.382910     -1.487521      0.655889
  H      -0.823916     -2.390256      0.915711
  H      -1.246011     -0.792389      1.490826
  C       1.609698     -1.393884      0.023838
  H       1.357922     -1.703203      1.038211
  H       1.605591     -2.286884     -0.608241
  H       2.631161     -1.013871      0.052149
  C      -2.862226     -1.839433      0.530023
  H      -3.241693     -2.289135      1.449754
  H      -3.465476     -0.952690      0.321073
  H      -3.031707     -2.551870     -0.281120
23
Coordinates from ORCA-job 6 Relaxed Surface Scan Step 14
  C       2.367174      1.051359     -1.809537
  H       3.219117      0.382686     -1.679614
  H       2.515629      1.585688     -2.750034
  H       2.396931      1.788887     -1.003326
  C       1.037222      0.301669     -1.823531
  H       0.245574      1.007718     -2.090800
  H       1.052232     -0.449054     -2.621412
  C       0.643554     -0.377864     -0.501963
  H       0.618856      0.401805      0.269009
  C      -0.772443     -0.965339     -0.619149
  H      -0.740390     -1.839085     -1.280827
  H      -1.412611     -0.233077     -1.120312
  C      -1.442130     -1.351795      0.700084
  H      -0.858385     -2.117747      1.214970
  H      -1.453126     -0.481608      1.364102
  C       1.665559     -1.431817     -0.064402
  H       1.373284     -1.911761      0.869961
  H       1.766713     -2.214191     -0.822276
  H       2.652025     -0.996158      0.096780
  C      -2.868743     -1.861247      0.515466
  H      -3.322061     -2.124410      1.473256
  H      -3.502728     -1.105604      0.045303
  H      -2.892324     -2.751587     -0.117656
23
Coordinates from ORCA-job 6 Relaxed Surface Scan Step 15
  C       2.348025      1.087252     -1.748387
  H       3.192260      0.396509     -1.728829
  H       2.460115      1.711670     -2.636988
  H       2.431259      1.738931     -0.874692
  C       1.006835      0.359289     -1.768653
  H       0.209672      1.095698     -1.916532
  H       0.967321     -0.306774     -2.637924
  C       0.668989     -0.444192     -0.503564
  H       0.667480      0.262953      0.333199
  C      -0.739106     -1.059882     -0.625022
  H      -0.652072     -2.044615     -1.099113
  H      -1.344063     -0.453289     -1.304858
  C      -1.505376     -1.190293      0.691521
  H      -0.914951     -1.745022      1.423896
  H      -1.646822     -0.191908      1.117077
  C       1.712948     -1.518113     -0.181820
  H       1.405743     -2.119367      0.676050
  H       1.849524     -2.196552     -1.028783
  H       2.684695     -1.085518      0.059492
  C      -2.863812     -1.865718      0.531278
  H      -3.392507     -1.923268      1.484847
  H      -3.499682     -1.316386     -0.167350
  H      -2.757546     -2.883936      0.149248
23
Coordinates from ORCA-job 6 Relaxed Surface Scan Step 16
  C       2.278420      1.160116     -1.664686
  H       3.156139      0.513914     -1.713061
  H       2.338650      1.852723     -2.506599
  H       2.349788      1.749664     -0.746908
  C       0.975153      0.367607     -1.712119
  H       0.139066      1.071175     -1.786851
  H       0.946673     -0.232641     -2.628374
  C       0.709872     -0.544379     -0.504696
  H       0.721225      0.095491      0.384086
  C      -0.687178     -1.201255     -0.613165
  H      -0.571177     -2.260059     -0.867703
  H      -1.241929     -0.757987     -1.444754
  C      -1.542898     -1.077689      0.647513
  H      -0.996173     -1.471992      1.508007
  H      -1.708250     -0.016774      0.860367
  C       1.798836     -1.601550     -0.299386
  H       1.546729     -2.257760      0.536740
  H       1.910725     -2.228115     -1.188861
  H       2.769627     -1.155326     -0.079661
  C      -2.888905     -1.786220      0.537996
  H      -3.477639     -1.661538      1.449042
  H      -3.477908     -1.391587     -0.293616
  H      -2.759917     -2.858351      0.370782
23
Coordinates from ORCA-job 6 Relaxed Surface Scan Step 17
  C       2.170304      1.232928     -1.570045
  H       3.095620      0.661773     -1.657561
  H       2.166845      1.969647     -2.375905
  H       2.205195      1.779368     -0.624014
  C       0.931902      0.344084     -1.648629
  H       0.046834      0.985780     -1.681060
  H       0.937256     -0.205971     -2.596059
  C       0.760060     -0.653859     -0.492484
  H       0.791854     -0.073036      0.436131
  C      -0.621209     -1.352159     -0.561103
  H      -0.491868     -2.437939     -0.574435
  H      -1.115808     -1.106670     -1.505503
  C      -1.552976     -0.987776      0.594591
  H      -1.070796     -1.259199      1.539837
  H      -1.684588      0.098633      0.623883
  C       1.897519     -1.676904     -0.425271
  H       1.745741     -2.368846      0.406076
  H       1.946488     -2.269280     -1.343460
  H       2.869446     -1.203598     -0.280564
  C      -2.918722     -1.660877      0.511625
  H      -3.551949     -1.378049      1.354948
  H      -3.443329     -1.380972     -0.405198
  H      -2.824891     -2.749611      0.518296
23
Coordinates from ORCA-job 6 Relaxed Surface Scan Step 18
  C       2.058453      1.288247     -1.475385
  H       3.022824      0.788009     -1.574659
  H       2.003072      2.044052     -2.261465
  H       2.052589      1.810339     -0.515249
  C       0.887120      0.314800     -1.580229
  H      -0.040199      0.892222     -1.579939
  H       0.919721     -0.192471     -2.550572
  C       0.812212     -0.746306     -0.469836
  H       0.894496     -0.218984      0.487777
  C      -0.554613     -1.466916     -0.478592
  H      -0.419149     -2.530971     -0.269416
  H      -0.989209     -1.420303     -1.482451
  C      -1.548632     -0.904077      0.537346
  H      -1.134945     -1.046035      1.543027
  H      -1.645706      0.177252      0.398099
  C       1.968487     -1.746651     -0.553332
  H       1.925037     -2.460244      0.272128
  H       1.924080     -2.316657     -1.485801
  H       2.941691     -1.256340     -0.509120
  C      -2.928463     -1.549158      0.462913
  H      -3.600568     -1.136396      1.217931
  H      -3.388994     -1.387706     -0.514775
  H      -2.870375     -2.628239      0.625694
23
Coordinates from ORCA-job 6 Relaxed Surface Scan Step 19
  C       2.007061      1.309337     -1.403859
  H       2.976571      0.832930     -1.556435
  H       1.908352      2.092489     -2.158285
  H       2.026646      1.795182     -0.425131
  C       0.850988      0.316696     -1.502041
  H      -0.085021      0.874925     -1.435741
  H       0.850620     -0.145481     -2.495143
  C       0.852167     -0.797140     -0.441235
  H       1.006363     -0.323954      0.535994
  C      -0.505227     -1.523329     -0.390984
  H      -0.363763     -2.533318      0.003227
  H      -0.882277     -1.654959     -1.411395
  C      -1.562394     -0.825108      0.465079
  H      -1.207369     -0.794874      1.501381
  H      -1.673296      0.216644      0.151587
  C       1.993800     -1.792684     -0.665456
  H       2.024702     -2.537577      0.132279
  H       1.863977     -2.326107     -1.611485
  H       2.967839     -1.302796     -0.691753
  C      -2.924961     -1.509584      0.419989
  H      -3.646241     -0.999147      1.061365
  H      -3.330958     -1.517537     -0.594448
  H      -2.858652     -2.547141      0.756584
23
Coordinates from ORCA-job 6 Relaxed Surface Scan Step 20
  C       2.052210      1.292063     -1.364246
  H       2.970926      0.780281     -1.653752
  H       1.921852      2.134183     -2.046921
  H       2.201506      1.701052     -0.361754
  C       0.833780      0.372000     -1.407260
  H      -0.053536      0.978833     -1.218688
  H       0.714429     -0.026499     -2.420806
  C       0.863503     -0.802107     -0.414794
  H       1.067489     -0.391374      0.581639
  C      -0.490534     -1.529185     -0.345976
  H      -0.349785     -2.474953      0.186040
  H      -0.802835     -1.802563     -1.360634
  C      -1.618864     -0.763019      0.345864
  H      -1.297820     -0.493800      1.357147
  H      -1.814433      0.178833     -0.171544
  C       1.979447     -1.798642     -0.742642
  H       2.012036     -2.604118     -0.006313
  H       1.819323     -2.253872     -1.724247
  H       2.962666     -1.327421     -0.751815
  C      -2.917686     -1.560177      0.426006
  H      -3.700149     -0.991533      0.932500
  H      -3.286977     -1.816721     -0.569932
  H      -2.777621     -2.493793      0.976223
23
Coordinates from ORCA-job 6 Relaxed Surface Scan Step 21
  C       2.092830      1.259718     -1.350145
  H       2.916890      0.719069     -1.817222
  H       1.933603      2.171238     -1.929707
  H       2.415542      1.558262     -0.349321
  C       0.810792      0.431267     -1.292457
  H       0.004252      1.083158     -0.951836
  H       0.537369      0.114965     -2.305522
  C       0.868175     -0.805143     -0.381289
  H       1.100798     -0.456166      0.632483
  C      -0.478666     -1.544215     -0.315287
  H      -0.350262     -2.420897      0.327529
  H      -0.721223     -1.936546     -1.309920
  C      -1.667816     -0.737354      0.208122
  H      -1.388794     -0.246410      1.145828
  H      -1.918054      0.063715     -0.490622
  C       1.973259     -1.782068     -0.794743
  H       1.975668     -2.661977     -0.148300
  H       1.827778     -2.127261     -1.822456
  H       2.964223     -1.331811     -0.732580
  C      -2.909980     -1.593999      0.436602
  H      -3.746369     -0.990434      0.794793
  H      -3.227456     -2.084212     -0.487059
  H      -2.723630     -2.375431      1.177204
23
Coordinates from ORCA-job 6 Relaxed Surface Scan Step 22
  C       2.090758      1.253552     -1.316676
  H       2.845101      0.719069     -1.895439
  H       1.910747      2.205919     -1.819351
  H       2.519275      1.475015     -0.335654
  C       0.790238      0.463318     -1.186045
  H       0.043171      1.116114     -0.727652
  H       0.412307      0.220380     -2.185814
  C       0.888197     -0.824605     -0.353738
  H       1.175292     -0.530349      0.662516
  C      -0.454054     -1.573016     -0.257952
  H      -0.345204     -2.355996      0.500681
  H      -0.639490     -2.095462     -1.203615
  C      -1.685670     -0.732772      0.083304
  H      -1.459251     -0.065697      0.919545
  H      -1.936072     -0.082136     -0.757542
  C       1.969028     -1.781818     -0.865481
  H       1.968397     -2.708873     -0.288214
  H       1.797260     -2.045219     -1.913118
  H       2.968553     -1.352973     -0.789070
  C      -2.905078     -1.583162      0.427114
  H      -3.776174     -0.959434      0.637539
  H      -3.167144     -2.249958     -0.398162
  H      -2.721260     -2.204429      1.306919
23
Coordinates from ORCA-job 6 Relaxed Surface Scan Step 23
  C       2.089782      1.257763     -1.281484
  H       2.778942      0.738627     -1.948770
  H       1.896300      2.240743     -1.715535
  H       2.603101      1.413686     -0.328930
  C       0.782249      0.492536     -1.086789
  H       0.094796      1.136162     -0.529438
  H       0.319446      0.316723     -2.064035
  C       0.916738     -0.837909     -0.328817
  H       1.290273     -0.589597      0.669092
  C      -0.424539     -1.587790     -0.154091
  H      -0.333566     -2.230091      0.730351
  H      -0.565307     -2.264957     -1.003614
  C      -1.693645     -0.744835     -0.015463
  H      -1.542456      0.053553      0.713067
  H      -1.905679     -0.241927     -0.961809
  C       1.945303     -1.784705     -0.955455
  H       1.961122     -2.739201     -0.424570
  H       1.702344     -1.993214     -2.001416
  H       2.956229     -1.377592     -0.921140
  C      -2.909082     -1.575355      0.385593
  H      -3.808132     -0.958537      0.443528
  H      -3.100224     -2.371868     -0.337886
  H      -2.765066     -2.044747      1.361706
23
Coordinates from ORCA-job 6 Relaxed Surface Scan Step 24
  C       2.105671      1.266966     -1.239728
  H       2.736308      0.767635     -1.976284
  H       1.909423      2.274729     -1.611191
  H       2.683959      1.362914     -0.316949
  C       0.793456      0.523241     -0.996678
  H       0.161531      1.157286     -0.368091
  H       0.267353      0.406708     -1.949263
  C       0.946628     -0.842797     -0.306942
  H       1.422000     -0.640669      0.655920
  C      -0.396907     -1.572853     -0.017948
  H      -0.329617     -2.018492      0.981704
  H      -0.496171     -2.414562     -0.710114
  C      -1.697146     -0.769414     -0.098822
  H      -1.636946      0.126716      0.519512
  H      -1.848554     -0.413988     -1.120690
  C       1.887345     -1.787988     -1.061877
  H       1.944077     -2.755031     -0.557284
  H       1.529585     -1.967666     -2.080032
  H       2.902882     -1.396501     -1.126878
  C      -2.912389     -1.589691      0.324183
  H      -3.832109     -1.008302      0.233594
  H      -3.023214     -2.483217     -0.295173
  H      -2.828237     -1.917555      1.363125
