23
Coordinates from ORCA-job 8 Relaxed Surface Scan Step 1
  C      -0.990879      1.086994     -0.251536
  H      -2.060099      1.018018     -0.027481
  C      -0.218841      0.272866      0.800989
  H       0.852768      0.405255      0.618311
  H      -0.410961     -0.789509      0.630178
  C      -0.506104      0.604412      2.270947
  H       0.242073      0.097947      2.888618
  H      -0.347830      1.671370      2.443751
  C      -1.898237      0.224529      2.789974
  H      -2.670833      0.719316      2.195348
  H      -2.002024      0.626143      3.801937
  C      -0.613865      2.570971     -0.241626
  H      -0.829542      3.045663      0.716199
  H       0.451942      2.705363     -0.447425
  H      -1.169464      3.117317     -1.006871
  C      -0.778747      0.489429     -1.644796
  H      -1.103959     -0.552349     -1.684386
  H      -1.339255      1.041317     -2.402464
  H       0.277244      0.517996     -1.927980
  C      -2.181178     -1.275617      2.830177
  H      -3.154630     -1.474045      3.283271
  H      -2.191071     -1.720150      1.833464
  H      -1.428171     -1.803801      3.420746
23
Coordinates from ORCA-job 8 Relaxed Surface Scan Step 2
  C      -0.975737      1.202247     -0.263597
  H      -2.036251      1.297749     -0.008101
  C      -0.299329      0.314299      0.796460
  H       0.784675      0.384402      0.661886
  H      -0.548427     -0.730394      0.594673
  C      -0.651270      0.640512      2.255086
  H       0.130975      0.243831      2.908995
  H      -0.629778      1.722689      2.401331
  C      -2.004825      0.102289      2.737196
  H      -2.792711      0.385812      2.033536
  H      -2.256854      0.595029      3.680335
  C      -0.382578      2.613625     -0.301100
  H      -0.452439      3.117020      0.663943
  H       0.673227      2.584593     -0.584712
  H      -0.904050      3.236214     -1.031385
  C      -0.893427      0.551929     -1.646556
  H      -1.385609     -0.422868     -1.657463
  H      -1.370798      1.174071     -2.406800
  H       0.147172      0.401314     -1.947688
  C      -2.045805     -1.408893      2.954609
  H      -3.023401     -1.721695      3.327187
  H      -1.856808     -1.963684      2.033857
  H      -1.297618     -1.720654      3.687653
23
Coordinates from ORCA-job 8 Relaxed Surface Scan Step 3
  C      -0.965767      1.283705     -0.291584
  H      -2.006466      1.513240     -0.036579
  C      -0.413222      0.321516      0.775454
  H       0.675447      0.282209      0.675506
  H      -0.759222     -0.690737      0.552973
  C      -0.800483      0.679024      2.221505
  H       0.017464      0.425578      2.901353
  H      -0.922490      1.760890      2.307288
  C      -2.080602     -0.005033      2.719017
  H      -2.867257      0.091070      1.964194
  H      -2.445526      0.525286      3.602900
  C      -0.197207      2.607911     -0.319759
  H      -0.185419      3.097423      0.655152
  H       0.841422      2.447299     -0.621954
  H      -0.644826      3.305767     -1.030773
  C      -0.960555      0.632028     -1.675782
  H      -1.577503     -0.268893     -1.693118
  H      -1.345627      1.313864     -2.437245
  H       0.053081      0.345614     -1.970283
  C      -1.904787     -1.479614      3.075056
  H      -2.846095     -1.914266      3.417645
  H      -1.564137     -2.070223      2.222401
  H      -1.171889     -1.604223      3.875976
23
Coordinates from ORCA-job 8 Relaxed Surface Scan Step 4
  C      -0.973231      1.333630     -0.355127
  H      -2.006894      1.655483     -0.181732
  C      -0.617690      0.303087      0.728937
  H       0.449937      0.075744      0.652091
  H      -1.131239     -0.631670      0.491817
  C      -0.974920      0.728755      2.169696
  H      -0.095207      0.656932      2.815380
  H      -1.257385      1.783589      2.178757
  C      -2.114770     -0.074817      2.804937
  H      -2.978753     -0.070438      2.132236
  H      -2.440144      0.436865      3.715150
  C      -0.078173      2.573731     -0.288058
  H      -0.107243      3.050159      0.692906
  H       0.962682      2.311467     -0.497660
  H      -0.386085      3.319783     -1.023916
  C      -0.913620      0.703833     -1.748203
  H      -1.606863     -0.135481     -1.835156
  H      -1.171392      1.429492     -2.522763
  H       0.090282      0.329167     -1.966991
  C      -1.750735     -1.514397      3.159193
  H      -2.600453     -2.034903      3.605684
  H      -1.440615     -2.086978      2.282892
  H      -0.929156     -1.543597      3.879274
23
Coordinates from ORCA-job 8 Relaxed Surface Scan Step 5
  C      -0.981053      1.366014     -0.406031
  H      -1.996621      1.772841     -0.322315
  C      -0.837922      0.294063      0.683806
  H       0.174506     -0.121307      0.635997
  H      -1.510055     -0.529221      0.427481
  C      -1.150903      0.778797      2.114935
  H      -0.225725      0.881767      2.690908
  H      -1.589174      1.778913      2.072400
  C      -2.119895     -0.117568      2.889747
  H      -3.058000     -0.185710      2.327614
  H      -2.371237      0.374105      3.833988
  C       0.012082      2.516696     -0.229130
  H      -0.085679      2.998064      0.744862
  H       1.041226      2.157354     -0.319506
  H      -0.137932      3.284565     -0.991208
  C      -0.847788      0.747266     -1.798901
  H      -1.591665     -0.036148     -1.958976
  H      -0.983178      1.498366     -2.580233
  H       0.140446      0.300018     -1.937732
  C      -1.591382     -1.517184      3.190791
  H      -2.322851     -2.099558      3.754751
  H      -1.362626     -2.073126      2.279508
  H      -0.676239     -1.469570      3.786590
23
Coordinates from ORCA-job 8 Relaxed Surface Scan Step 6
  C      -0.983136      1.397157     -0.435347
  H      -1.952164      1.911718     -0.421252
  C      -1.047695      0.305902      0.641965
  H      -0.110616     -0.262120      0.630792
  H      -1.832266     -0.400008      0.352484
  C      -1.336868      0.818776      2.061286
  H      -0.400126      1.078795      2.565260
  H      -1.914235      1.745738      1.997567
  C      -2.123096     -0.160294      2.935729
  H      -3.094350     -0.343880      2.462757
  H      -2.341220      0.323360      3.892220
  C       0.109742      2.432668     -0.162173
  H      -0.032180      2.935172      0.795464
  H       1.097189      1.962067     -0.147943
  H       0.121658      3.201869     -0.937471
  C      -0.810834      0.779374     -1.824296
  H      -1.613398      0.073105     -2.047624
  H      -0.817436      1.546275     -2.601977
  H       0.137086      0.239382     -1.900105
  C      -1.419072     -1.487779      3.202678
  H      -2.017791     -2.123108      3.858538
  H      -1.238048     -2.045990      2.282251
  H      -0.452807     -1.328742      3.688542
23
Coordinates from ORCA-job 8 Relaxed Surface Scan Step 7
  C      -0.975019      1.433233     -0.445219
  H      -1.860537      2.079639     -0.461080
  C      -1.233091      0.332317      0.594068
  H      -0.370293     -0.341715      0.615530
  H      -2.078738     -0.270377      0.246856
  C      -1.540037      0.833970      2.007793
  H      -0.632945      1.236605      2.468217
  H      -2.243498      1.669957      1.941421
  C      -2.141716     -0.222800      2.938374
  H      -3.082271     -0.582450      2.508067
  H      -2.409177      0.260404      3.882378
  C       0.233704      2.305937     -0.098491
  H       0.106433      2.823616      0.852880
  H       1.144677      1.703912     -0.031750
  H       0.396230      3.066880     -0.864903
  C      -0.822546      0.828730     -1.842690
  H      -1.700932      0.242096     -2.120170
  H      -0.690523      1.606619     -2.597892
  H       0.047279      0.167758     -1.892847
  C      -1.231357     -1.411780      3.235471
  H      -1.699613     -2.090724      3.951047
  H      -1.006299     -1.989422      2.337271
  H      -0.281392     -1.082971      3.665014
23
Coordinates from ORCA-job 8 Relaxed Surface Scan Step 8
  C      -0.952738      1.458683     -0.434732
  H      -1.724816      2.236057     -0.412831
  C      -1.375434      0.347209      0.539495
  H      -0.574593     -0.396697      0.584356
  H      -2.242607     -0.171849      0.118738
  C      -1.741139      0.817469      1.948720
  H      -0.905859      1.360629      2.397557
  H      -2.561072      1.538263      1.870989
  C      -2.166008     -0.301551      2.905826
  H      -2.989004     -0.870272      2.461783
  H      -2.573182      0.157134      3.811203
  C       0.374591      2.114753     -0.044027
  H       0.328144      2.587348      0.937510
  H       1.183237      1.378495     -0.022062
  H       0.651685      2.887778     -0.764076
  C      -0.883061      0.919634     -1.865503
  H      -1.840804      0.499234     -2.179300
  H      -0.618377      1.708266     -2.573181
  H      -0.130212      0.131031     -1.952073
  C      -1.049157     -1.262739      3.307414
  H      -1.407737     -1.988836      4.039906
  H      -0.663062     -1.824681      2.455423
  H      -0.210461     -0.725923      3.758211
23
Coordinates from ORCA-job 8 Relaxed Surface Scan Step 9
  C      -0.926333      1.455538     -0.412259
  H      -1.577487      2.330827     -0.310347
  C      -1.485189      0.336649      0.483060
  H      -0.739048     -0.460469      0.543844
  H      -2.354634     -0.111733     -0.007131
  C      -1.911932      0.780684      1.885904
  H      -1.165632      1.450148      2.319980
  H      -2.823791      1.377829      1.792341
  C      -2.167215     -0.367089      2.869656
  H      -2.821700     -1.112345      2.407315
  H      -2.719265      0.025930      3.727809
  C       0.484581      1.881094      0.004517
  H       0.525486      2.215028      1.041970
  H       1.189534      1.052292     -0.105808
  H       0.842994      2.704448     -0.617161
  C      -0.944628      1.034601     -1.883425
  H      -1.958133      0.804219     -2.218305
  H      -0.553088      1.825243     -2.527236
  H      -0.331469      0.143233     -2.043832
  C      -0.903957     -1.056987      3.380727
  H      -1.152676     -1.844340      4.095253
  H      -0.331553     -1.518823      2.574364
  H      -0.246530     -0.346543      3.888108
23
Coordinates from ORCA-job 8 Relaxed Surface Scan Step 10
  C      -0.916345      1.437178     -0.386431
  H      -1.471337      2.370658     -0.242042
  C      -1.609773      0.333465      0.430708
  H      -0.940200     -0.529376      0.478802
  H      -2.491015     -0.017105     -0.113891
  C      -2.054502      0.750749      1.841167
  H      -1.390111      1.519999      2.240941
  H      -3.034813      1.229153      1.764739
  C      -2.134107     -0.397347      2.854441
  H      -2.669426     -1.244446      2.415025
  H      -2.734096     -0.072876      3.709006
  C       0.519575      1.681720      0.086670
  H       0.566497      1.924159      1.149282
  H       1.139784      0.796368     -0.078919
  H       0.975112      2.511295     -0.458472
  C      -0.940137      1.110289     -1.880868
  H      -1.963306      1.015280     -2.250405
  H      -0.445946      1.889316     -2.465558
  H      -0.425039      0.167073     -2.084115
  C      -0.777000     -0.875763      3.366400
  H      -0.895532     -1.690429      4.083774
  H      -0.139674     -1.242109      2.559342
  H      -0.240273     -0.067815      3.869749
23
Coordinates from ORCA-job 8 Relaxed Surface Scan Step 11
  C      -0.918172      1.416920     -0.354388
  H      -1.405614      2.386764     -0.205587
  C      -1.742307      0.349568      0.385810
  H      -1.168442     -0.581316      0.395879
  H      -2.636116      0.125384     -0.202029
  C      -2.182229      0.727893      1.814887
  H      -1.606932      1.582827      2.177996
  H      -3.217195      1.077115      1.778926
  C      -2.080441     -0.402522      2.845743
  H      -2.553610     -1.306398      2.450299
  H      -2.657838     -0.123703      3.731575
  C       0.505220      1.530280      0.198003
  H       0.515301      1.737824      1.268854
  H       1.060879      0.602582      0.035065
  H       1.053342      2.335183     -0.296542
  C      -0.889590      1.138968     -1.858588
  H      -1.896291      1.137597     -2.281690
  H      -0.306125      1.893751     -2.390418
  H      -0.439875      0.164445     -2.069075
  C      -0.654040     -0.733824      3.278212
  H      -0.646350     -1.545821      4.008253
  H      -0.032151     -1.045345      2.436841
  H      -0.173089      0.131265      3.741319
23
Coordinates from ORCA-job 8 Relaxed Surface Scan Step 12
  C      -0.915600      1.398029     -0.321187
  H      -1.344296      2.394603     -0.168322
  C      -1.851035      0.375960      0.348430
  H      -1.380821     -0.611119      0.303516
  H      -2.748804      0.288311     -0.268028
  C      -2.284264      0.699607      1.796989
  H      -1.813836      1.626343      2.136269
  H      -3.356033      0.911279      1.798937
  C      -2.022028     -0.401635      2.832028
  H      -2.439977     -1.346235      2.471144
  H      -2.575332     -0.157856      3.743399
  C       0.487576      1.409980      0.288999
  H       0.468543      1.620926      1.358452
  H       0.984733      0.446328      0.148199
  H       1.108718      2.173919     -0.183742
  C      -0.841529      1.153443     -1.829932
  H      -1.827968      1.222280     -2.293228
  H      -0.193038      1.884000     -2.318400
  H      -0.441622      0.158936     -2.047342
  C      -0.556212     -0.618281      3.197529
  H      -0.458257     -1.404827      3.948681
  H       0.042430     -0.914810      2.334800
  H      -0.113012      0.290254      3.612156
23
Coordinates from ORCA-job 8 Relaxed Surface Scan Step 13
  C      -0.899435      1.379119     -0.296455
  H      -1.261502      2.395510     -0.107152
  C      -1.920213      0.401126      0.315018
  H      -1.549569     -0.623145      0.204227
  H      -2.814664      0.443314     -0.310647
  C      -2.353203      0.656938      1.778227
  H      -1.996408      1.635587      2.112619
  H      -3.442486      0.736700      1.796487
  C      -1.971368     -0.411753      2.812725
  H      -2.293162     -1.392489      2.450148
  H      -2.553305     -0.223090      3.719399
  C       0.498172      1.284773      0.316779
  H       0.492124      1.497679      1.385048
  H       0.926899      0.289147      0.174474
  H       1.171829      2.003701     -0.154693
  C      -0.828683      1.189413     -1.813860
  H      -1.805483      1.334098     -2.279983
  H      -0.134677      1.898949     -2.269497
  H      -0.485916      0.182361     -2.068069
  C      -0.498264     -0.499201      3.199502
  H      -0.355486     -1.249272      3.980341
  H       0.132690     -0.783133      2.356981
  H      -0.129556      0.453104      3.587728
23
Coordinates from ORCA-job 8 Relaxed Surface Scan Step 14
  C      -0.873979      1.357988     -0.279905
  H      -1.159760      2.383813     -0.022818
  C      -1.960255      0.421142      0.283884
  H      -1.677668     -0.621633      0.102684
  H      -2.847935      0.579958     -0.332641
  C      -2.394748      0.601461      1.756807
  H      -2.148249      1.611287      2.100382
  H      -3.486273      0.561629      1.773398
  C      -1.921742     -0.436001      2.788578
  H      -2.100313     -1.439864      2.391889
  H      -2.572655     -0.341477      3.662312
  C       0.526883      1.135861      0.290361
  H       0.571027      1.342005      1.357983
  H       0.864777      0.108502      0.128888
  H       1.244935      1.798797     -0.197241
  C      -0.843805      1.256051     -1.807845
  H      -1.816933      1.491287     -2.243550
  H      -0.112859      1.945283     -2.235776
  H      -0.572584      0.246086     -2.128378
  C      -0.476730     -0.360720      3.272599
  H      -0.320899     -1.062984      4.094384
  H       0.236837     -0.616068      2.490549
  H      -0.228734      0.637033      3.642804
23
Coordinates from ORCA-job 8 Relaxed Surface Scan Step 15
  C      -0.849501      1.336060     -0.274589
  H      -1.050861      2.362823      0.050496
  C      -1.992350      0.450042      0.257251
  H      -1.796982     -0.597261      0.000438
  H      -2.875507      0.721112     -0.326123
  C      -2.406872      0.550120      1.741259
  H      -2.241365      1.568665      2.108266
  H      -3.491452      0.421313      1.758254
  C      -1.853126     -0.473599      2.750214
  H      -1.837360     -1.464237      2.285763
  H      -2.581470     -0.539610      3.562821
  C       0.545389      0.974503      0.236884
  H       0.652558      1.172828      1.300628
  H       0.775096     -0.080426      0.061954
  H       1.304802      1.566502     -0.278420
  C      -0.866053      1.325748     -1.806685
  H      -1.832099      1.649742     -2.198954
  H      -0.102018      1.990702     -2.214600
  H      -0.670943      0.321553     -2.193945
  C      -0.488459     -0.210295      3.384115
  H      -0.336241     -0.882290      4.231506
  H       0.334615     -0.377577      2.692512
  H      -0.411464      0.813016      3.760305
23
Coordinates from ORCA-job 8 Relaxed Surface Scan Step 16
  C      -0.844659      1.328502     -0.507127
  H      -0.897297      2.390232     -0.238527
  C      -1.908776      0.595882      0.324793
  H      -1.878318     -0.470032      0.073644
  H      -2.888729      0.947526     -0.006493
  C      -1.798849      0.774340      1.853131
  H      -1.122494      1.604165      2.081365
  H      -2.771467      1.073430      2.253339
  C      -1.336810     -0.472148      2.609520
  H      -0.376727     -0.811969      2.211969
  H      -2.044256     -1.285079      2.418114
  C       0.577056      0.843405     -0.215034
  H       0.846217      0.970284      0.834454
  H       0.687657     -0.216250     -0.462033
  H       1.306962      1.398829     -0.807988
  C      -1.156716      1.217080     -2.000862
  H      -2.147686      1.614205     -2.230813
  H      -0.429898      1.770603     -2.599384
  H      -1.132120      0.174842     -2.331228
  C      -1.212756     -0.255050      4.113880
  H      -0.894351     -1.167880      4.621323
  H      -0.480863      0.523484      4.343112
  H      -2.166785      0.051035      4.550193
23
Coordinates from ORCA-job 8 Relaxed Surface Scan Step 17
  C      -0.833634      1.311079     -0.487693
  H      -0.821592      2.374448     -0.221831
  C      -1.963818      0.654917      0.323376
  H      -2.039951     -0.402228      0.045016
  H      -2.900476      1.112183     -0.005090
  C      -1.873220      0.777134      1.855211
  H      -1.326823      1.688259      2.120980
  H      -2.881482      0.915729      2.255713
  C      -1.250704     -0.423004      2.572495
  H      -0.250437     -0.621898      2.182483
  H      -1.843599     -1.314468      2.345087
  C       0.556677      0.749511     -0.182501
  H       0.844755      0.912209      0.856402
  H       0.601976     -0.325195     -0.379647
  H       1.311416      1.232002     -0.807340
  C      -1.133990      1.216841     -1.985605
  H      -2.100964      1.663371     -2.226683
  H      -0.373367      1.733582     -2.574815
  H      -1.157991      0.174930     -2.317060
  C      -1.173539     -0.243141      4.085350
  H      -0.744740     -1.123765      4.567788
  H      -0.551990      0.615514      4.351313
  H      -2.164171     -0.078573      4.516398
23
Coordinates from ORCA-job 8 Relaxed Surface Scan Step 18
  C      -0.795969      1.271823     -0.471703
  H      -0.687943      2.311082     -0.141137
  C      -1.959299      0.654325      0.325959
  H      -2.081427     -0.395311      0.034314
  H      -2.870544      1.157192     -0.007959
  C      -1.919211      0.755288      1.858839
  H      -1.553693      1.745271      2.152502
  H      -2.951091      0.709536      2.220147
  C      -1.129928     -0.328522      2.597008
  H      -0.080079     -0.308961      2.302411
  H      -1.509920     -1.309779      2.295562
  C       0.557376      0.586682     -0.262426
  H       0.932436      0.715728      0.751818
  H       0.495231     -0.486149     -0.464991
  H       1.306067      1.007084     -0.937286
  C      -1.148194      1.297997     -1.962225
  H      -2.081353      1.835485     -2.142603
  H      -0.364898      1.787410     -2.544814
  H      -1.268092      0.284390     -2.355212
  C      -1.222352     -0.198672      4.114590
  H      -0.662449     -0.991531      4.614564
  H      -0.817770      0.757573      4.455607
  H      -2.258564     -0.258505      4.456379
23
Coordinates from ORCA-job 8 Relaxed Surface Scan Step 19
  C      -0.750362      1.188956     -0.451359
  H      -0.529063      2.157830      0.010999
  C      -1.927140      0.560493      0.320171
  H      -2.006461     -0.500338      0.055822
  H      -2.844145      1.024301     -0.052084
  C      -1.954684      0.712731      1.847823
  H      -1.789590      1.764615      2.105884
  H      -2.974714      0.486573      2.173989
  C      -1.003528     -0.160887      2.668427
  H       0.031347      0.142327      2.504882
  H      -1.076151     -1.197967      2.325892
  C       0.529807      0.347942     -0.424201
  H       0.907815      0.191236      0.584004
  H       0.357355     -0.635371     -0.870604
  H       1.322008      0.834808     -0.997237
  C      -1.158325      1.460124     -1.903190
  H      -2.014942      2.134988     -1.957390
  H      -0.340353      1.914866     -2.466049
  H      -1.434233      0.532102     -2.412157
  C      -1.296942     -0.102161      4.165045
  H      -0.596179     -0.719881      4.730293
  H      -1.217049      0.919858      4.543852
  H      -2.306137     -0.457711      4.386534
23
Coordinates from ORCA-job 8 Relaxed Surface Scan Step 20
  C      -0.728187      1.105497     -0.406027
  H      -0.430672      1.981624      0.181203
  C      -1.940966      0.454699      0.293612
  H      -1.975168     -0.611214      0.042074
  H      -2.852746      0.884229     -0.129079
  C      -2.042342      0.627112      1.813999
  H      -2.052913      1.697404      2.048067
  H      -3.020696      0.246144      2.124124
  C      -0.973488     -0.055399      2.667626
  H       0.004909      0.387572      2.470013
  H      -0.896464     -1.109223      2.381622
  C       0.480259      0.168486     -0.504207
  H       0.792469     -0.212541      0.466962
  H       0.248138     -0.692770     -1.136794
  H       1.336065      0.681981     -0.948255
  C      -1.111476      1.605504     -1.802187
  H      -1.906720      2.352192     -1.752558
  H      -0.257647      2.061143     -2.308566
  H      -1.467530      0.782480     -2.428425
  C      -1.262577      0.041563      4.162973
  H      -0.479142     -0.441809      4.750091
  H      -1.323900      1.083438      4.487035
  H      -2.210872     -0.438677      4.416040
23
Coordinates from ORCA-job 8 Relaxed Surface Scan Step 21
  C      -0.705641      1.012211     -0.355591
  H      -0.335065      1.764153      0.349671
  C      -1.957119      0.346644      0.265664
  H      -1.959643     -0.721605      0.025151
  H      -2.853958      0.752104     -0.209265
  C      -2.126631      0.528228      1.778040
  H      -2.304710      1.588337      1.990432
  H      -3.041188      0.009895      2.083849
  C      -0.968598      0.035186      2.644609
  H      -0.054160      0.572509      2.377051
  H      -0.777639     -1.020987      2.429440
  C       0.428439      0.009471     -0.590895
  H       0.697624     -0.524336      0.320973
  H       0.136617     -0.736374     -1.335408
  H       1.326339      0.510956     -0.959343
  C      -1.049100      1.739481     -1.658047
  H      -1.797630      2.517196     -1.491867
  H      -0.166294      2.213891     -2.092608
  H      -1.451865      1.044580     -2.400363
  C      -1.227095      0.205743      4.138611
  H      -0.382934     -0.153774      4.730434
  H      -1.387876      1.255838      4.394829
  H      -2.113537     -0.349911      4.453980
23
Coordinates from ORCA-job 8 Relaxed Surface Scan Step 22
  C      -0.623985      0.850861     -0.336349
  H      -0.102836      1.385827      0.461910
  C      -1.894121      0.190335      0.262460
  H      -1.857954     -0.889281      0.092655
  H      -2.774715      0.532118     -0.287414
  C      -2.153596      0.449864      1.753959
  H      -2.523396      1.471556      1.893498
  H      -2.977123     -0.198045      2.070484
  C      -0.960020      0.221412      2.682001
  H      -0.154158      0.912712      2.415718
  H      -0.563262     -0.786995      2.524808
  C       0.358256     -0.193859     -0.872903
  H       0.648428     -0.901773     -0.093680
  H      -0.085660     -0.766821     -1.691913
  H       1.268954      0.275997     -1.251560
  C      -0.975783      1.875140     -1.417670
  H      -1.639094      2.650294     -1.026940
  H      -0.080928      2.367866     -1.804798
  H      -1.483958      1.398004     -2.260207
  C      -1.306342      0.402661      4.156693
  H      -0.432247      0.243413      4.791267
  H      -1.679537      1.410659      4.354026
  H      -2.078586     -0.302510      4.473300
23
Coordinates from ORCA-job 8 Relaxed Surface Scan Step 23
  C      -0.425057      0.446534     -0.301652
  H       0.388784      0.401253      0.432724
  C      -1.634290     -0.279427      0.307283
  H      -1.380679     -1.339968      0.385748
  H      -2.470183     -0.235709     -0.399099
  C      -2.120565      0.222157      1.677253
  H      -2.760401      1.101302      1.561133
  H      -2.771358     -0.546238      2.105765
  C      -1.015697      0.556708      2.679963
  H      -0.410625      1.380185      2.286309
  H      -0.339087     -0.298096      2.781877
  C       0.057271     -0.279660     -1.559729
  H       0.325240     -1.315798     -1.342343
  H      -0.718922     -0.292228     -2.329957
  H       0.937033      0.208528     -1.984812
  C      -0.717249      1.917169     -0.610102
  H      -1.031355      2.471497      0.275169
  H       0.166677      2.416289     -1.013359
  H      -1.514499      2.005484     -1.353559
  C      -1.553751      0.939946      4.055038
  H      -0.742908      1.187438      4.743069
  H      -2.212858      1.809517      3.993781
  H      -2.127186      0.122555      4.498846
23
Coordinates from ORCA-job 8 Relaxed Surface Scan Step 24
  C      -0.433599      0.418700     -0.280594
  H       0.342765      0.303147      0.486125
  C      -1.720058     -0.226292      0.262944
  H      -1.601541     -1.307328      0.175477
  H      -2.546751      0.016738     -0.412030
  C      -2.136688      0.125743      1.713888
  H      -2.954742      0.849511      1.716111
  H      -2.563222     -0.771175      2.172040
  C      -1.038789      0.667367      2.632202
  H      -0.627390      1.584132      2.196765
  H      -0.211323     -0.045518      2.691308
  C       0.050825     -0.324427     -1.528719
  H       0.267707     -1.371902     -1.309082
  H      -0.703911     -0.300395     -2.319788
  H       0.962028      0.126893     -1.927654
  C      -0.610747      1.907687     -0.593008
  H      -0.996604      2.470830      0.256998
  H       0.336398      2.364235     -0.889351
  H      -1.314642      2.042343     -1.418972
  C      -1.544108      0.960233      4.041629
  H      -0.745229      1.352019      4.674413
  H      -2.349140      1.699169      4.029131
  H      -1.932902      0.057727      4.519513
