20
Coordinates from ORCA-job 9 Relaxed Surface Scan Step 1
  C      -2.643195      2.273226     -4.447619
  H      -2.177274      3.233657     -4.227644
  H      -2.527770      2.087497     -5.518303
  H      -3.711760      2.372321     -4.244555
  C      -2.040861      1.132281     -3.628420
  H      -2.222695      1.319346     -2.568048
  H      -2.595201      0.220709     -3.866203
  C      -0.546563      0.865189     -3.878184
  H      -0.352759     -0.200346     -3.718927
  H      -0.334496      1.053669     -4.935563
  C       0.480615      1.613181     -3.012485
  H       1.456818      1.477286     -3.489159
  H       0.546826      1.117760     -2.038060
  C       0.268593      3.106366     -2.765632
  H      -0.636886      3.251913     -2.169372
  H       0.111582      3.627884     -3.713908
  C       1.442700      3.747844     -2.030775
  H       1.261334      4.808315     -1.844636
  H       1.615586      3.266898     -1.064821
  H       2.365709      3.665756     -2.609748
20
Coordinates from ORCA-job 9 Relaxed Surface Scan Step 2
  C      -2.596166      2.271641     -4.552566
  H      -2.095636      3.228851     -4.407909
  H      -2.462472      1.983597     -5.598232
  H      -3.664095      2.432913     -4.390007
  C      -2.064513      1.187011     -3.616293
  H      -2.268560      1.474651     -2.584220
  H      -2.651634      0.281168     -3.789010
  C      -0.581237      0.826605     -3.808594
  H      -0.442294     -0.215988     -3.508571
  H      -0.371847      0.855009     -4.881864
  C       0.506882      1.632084     -3.059176
  H       1.402768      1.621336     -3.687082
  H       0.775425      1.089775     -2.147607
  C       0.224767      3.079399     -2.653957
  H      -0.590415      3.102086     -1.925046
  H      -0.100923      3.665734     -3.515851
  C       1.447094      3.750854     -2.032650
  H       1.222000      4.773855     -1.724502
  H       1.791800      3.207234     -1.149534
  H       2.279357      3.792937     -2.739390
20
Coordinates from ORCA-job 9 Relaxed Surface Scan Step 3
  C      -2.514250      2.263891     -4.654433
  H      -1.921849      3.178847     -4.647511
  H      -2.428118      1.825333     -5.651737
  H      -3.558746      2.548435     -4.509597
  C      -2.068584      1.266829     -3.586147
  H      -2.243842      1.679281     -2.589200
  H      -2.719059      0.390646     -3.656598
  C      -0.618827      0.774365     -3.711760
  H      -0.554926     -0.183078     -3.191100
  H      -0.435833      0.535568     -4.762990
  C       0.535787      1.677529     -3.190214
  H       1.245350      1.857342     -4.002284
  H       1.098663      1.109449     -2.444615
  C       0.184381      3.030734     -2.565217
  H      -0.554825      2.902123     -1.771432
  H      -0.281040      3.681276     -3.307715
  C       1.410162      3.737888     -1.993512
  H       1.143242      4.705557     -1.563911
  H       1.880136      3.143748     -1.206001
  H       2.162478      3.914990     -2.766088
20
Coordinates from ORCA-job 9 Relaxed Surface Scan Step 4
  C      -2.420847      2.210310     -4.770720
  H      -1.758316      3.072972     -4.857808
  H      -2.341808      1.641693     -5.700646
  H      -3.443292      2.587535     -4.701094
  C      -2.075714      1.334247     -3.568636
  H      -2.231160      1.888222     -2.635584
  H      -2.778362      0.496815     -3.538329
  C      -0.653956      0.763160     -3.577918
  H      -0.599594     -0.018474     -2.815577
  H      -0.482712      0.242491     -4.525017
  C       0.495546      1.769042     -3.348933
  H       0.883160      2.127706     -4.307114
  H       1.328752      1.224553     -2.895519
  C       0.163113      2.985609     -2.475579
  H      -0.487015      2.696432     -1.645704
  H      -0.425407      3.699761     -3.056164
  C       1.404592      3.692280     -1.941119
  H       1.138124      4.578602     -1.361833
  H       1.987453      3.034009     -1.292463
  H       2.057744      4.013788     -2.756304
20
Coordinates from ORCA-job 9 Relaxed Surface Scan Step 5
  C      -2.361635      2.179678     -4.871574
  H      -1.713217      3.055983     -4.928335
  H      -2.181727      1.578962     -5.766713
  H      -3.393718      2.533612     -4.913728
  C      -2.115326      1.362970     -3.605512
  H      -2.331126      1.973266     -2.722068
  H      -2.829574      0.535312     -3.577672
  C      -0.703725      0.781623     -3.484430
  H      -0.678581      0.113142     -2.618481
  H      -0.502354      0.142282     -4.349973
  C       0.435431      1.802178     -3.353082
  H       0.662544      2.243305     -4.328790
  H       1.340081      1.258199     -3.064786
  C       0.184038      2.927444     -2.345222
  H      -0.273965      2.520214     -1.438148
  H      -0.552543      3.625004     -2.751694
  C       1.447427      3.701273     -1.982490
  H       1.228384      4.517411     -1.291095
  H       2.187467      3.052959     -1.507342
  H       1.912419      4.135936     -2.870927
20
Coordinates from ORCA-job 9 Relaxed Surface Scan Step 6
  C      -2.315748      2.159874     -4.958567
  H      -1.690081      3.054052     -4.982685
  H      -2.043222      1.542970     -5.818759
  H      -3.349614      2.482246     -5.097762
  C      -2.159258      1.384751     -3.652718
  H      -2.443429      2.024793     -2.812500
  H      -2.874131      0.557093     -3.647485
  C      -0.761932      0.803725     -3.413236
  H      -0.787918      0.209384     -2.494446
  H      -0.532495      0.096883     -4.217194
  C       0.388740      1.810670     -3.313353
  H       0.534552      2.310959     -4.275795
  H       1.310818      1.249169     -3.133112
  C       0.233263      2.866020     -2.217806
  H      -0.006156      2.373446     -1.269698
  H      -0.619241      3.512235     -2.442622
  C       1.476657      3.731984     -2.039913
  H       1.328345      4.483829     -1.262208
  H       2.343167      3.129204     -1.757616
  H       1.727987      4.257465     -2.964585
20
Coordinates from ORCA-job 9 Relaxed Surface Scan Step 7
  C      -2.302537      2.086933     -5.073516
  H      -1.670772      2.972402     -5.163115
  H      -2.009561      1.390121     -5.863102
  H      -3.329424      2.399610     -5.273472
  C      -2.192889      1.437988     -3.695766
  H      -2.492014      2.159748     -2.931540
  H      -2.922772      0.625875     -3.633255
  C      -0.814068      0.855223     -3.364367
  H      -0.883687      0.324417     -2.409458
  H      -0.574256      0.094452     -4.113968
  C       0.352741      1.845950     -3.287170
  H       0.415147      2.426610     -4.212229
  H       1.283349      1.272136     -3.237006
  C       0.309904      2.799118     -2.092931
  H       0.281932      2.210582     -1.170037
  H      -0.614859      3.382217     -2.110468
  C       1.499144      3.753562     -2.044102
  H       1.441982      4.414087     -1.176614
  H       2.443575      3.207278     -1.983055
  H       1.539366      4.382444     -2.936889
20
Coordinates from ORCA-job 9 Relaxed Surface Scan Step 8
  C      -2.318172      1.947310     -5.201070
  H      -1.619108      2.747197     -5.451362
  H      -2.112294      1.107289     -5.869200
  H      -3.322433      2.311017     -5.427905
  C      -2.211540      1.523834     -3.737639
  H      -2.454316      2.375514     -3.096949
  H      -2.981737      0.773998     -3.536517
  C      -0.852936      0.932961     -3.341584
  H      -0.951282      0.455356     -2.361683
  H      -0.612164      0.130319     -4.045110
  C       0.319887      1.921615     -3.284561
  H       0.275474      2.609953     -4.133379
  H       1.255822      1.367307     -3.401965
  C       0.400142      2.724887     -1.986135
  H       0.554335      2.029821     -1.154300
  H      -0.554191      3.223979     -1.794312
  C       1.518082      3.762638     -1.986490
  H       1.562720      4.297626     -1.035752
  H       2.492257      3.295036     -2.149459
  H       1.371754      4.503095     -2.776690
20
Coordinates from ORCA-job 9 Relaxed Surface Scan Step 9
  C      -2.317666      1.835357     -5.282631
  H      -1.576159      2.566979     -5.609006
  H      -2.149871      0.918621     -5.853374
  H      -3.300653      2.221789     -5.559649
  C      -2.239971      1.567243     -3.781360
  H      -2.468710      2.487898     -3.237603
  H      -3.029014      0.859036     -3.513532
  C      -0.895327      1.001894     -3.308955
  H      -1.021909      0.594407     -2.301283
  H      -0.638612      0.151270     -3.946774
  C       0.269970      2.006861     -3.287366
  H       0.116142      2.780324     -4.045233
  H       1.198186      1.499705     -3.565511
  C       0.476852      2.675759     -1.928335
  H       0.745581      1.904808     -1.198632
  H      -0.466954      3.109027     -1.582400
  C       1.554321      3.754874     -1.939760
  H       1.690438      4.189937     -0.947629
  H       2.517611      3.348771     -2.258293
  H       1.296046      4.566191     -2.624733
20
Coordinates from ORCA-job 9 Relaxed Surface Scan Step 10
  C      -2.295914      1.752690     -5.341486
  H      -1.548400      2.475709     -5.673747
  H      -2.090240      0.808207     -5.851428
  H      -3.269664      2.108402     -5.684442
  C      -2.282974      1.568921     -3.825951
  H      -2.551769      2.512938     -3.342453
  H      -3.068411      0.858263     -3.553854
  C      -0.949048      1.067199     -3.262872
  H      -1.110903      0.735138     -2.233287
  H      -0.653439      0.173386     -3.819447
  C       0.195809      2.101072     -3.277824
  H      -0.061419      2.938328     -3.933096
  H       1.097605      1.656651     -3.707879
  C       0.538763      2.651439     -1.893538
  H       0.866886      1.823703     -1.256421
  H      -0.367130      3.053073     -1.427860
  C       1.617223      3.729018     -1.916496
  H       1.844839      4.083829     -0.909309
  H       2.545414      3.350737     -2.351997
  H       1.303072      4.592050     -2.508674
20
Coordinates from ORCA-job 9 Relaxed Surface Scan Step 11
  C      -2.253203      1.690891     -5.387215
  H      -1.521660      2.441399     -5.693218
  H      -1.969321      0.744335     -5.854093
  H      -3.219041      1.987325     -5.801436
  C      -2.327573      1.549885     -3.869151
  H      -2.665421      2.494066     -3.428305
  H      -3.095260      0.810890     -3.622580
  C      -1.011315      1.131220     -3.207883
  H      -1.218959      0.872513     -2.166458
  H      -0.662291      0.205173     -3.673890
  C       0.103840      2.198085     -3.252662
  H      -0.247066      3.082734     -3.791981
  H       0.958321      1.827418     -3.825642
  C       0.588727      2.636219     -1.870389
  H       0.946580      1.761565     -1.318344
  H      -0.261645      3.023696     -1.299857
  C       1.689317      3.690380     -1.917444
  H       2.007321      3.976638     -0.912919
  H       2.568797      3.321140     -2.450695
  H       1.350154      4.595179     -2.427900
20
Coordinates from ORCA-job 9 Relaxed Surface Scan Step 12
  C      -2.192966      1.643291     -5.421956
  H      -1.490273      2.433381     -5.693977
  H      -1.817854      0.707921     -5.845154
  H      -3.143809      1.868628     -5.909177
  C      -2.365256      1.528262     -3.909861
  H      -2.778969      2.462686     -3.511948
  H      -3.109273      0.755142     -3.697481
  C      -1.080167      1.196399     -3.147484
  H      -1.344743      1.009091     -2.104513
  H      -0.676302      0.248869     -3.517213
  C       0.005841      2.288389     -3.213185
  H      -0.418154      3.207182     -3.628960
  H       0.794229      1.992135     -3.911135
  C       0.631918      2.617279     -1.857357
  H       1.011681      1.702433     -1.392639
  H      -0.151555      2.986115     -1.187510
  C       1.753065      3.647500     -1.939070
  H       2.163125      3.866450     -0.951123
  H       2.573483      3.291257     -2.566838
  H       1.396282      4.588344     -2.365482
20
Coordinates from ORCA-job 9 Relaxed Surface Scan Step 13
  C      -2.123714      1.597154     -5.447514
  H      -1.453893      2.421962     -5.698177
  H      -1.663971      0.675123     -5.812780
  H      -3.050657      1.747301     -6.004723
  C      -2.393689      1.517376     -3.947527
  H      -2.873771      2.443407     -3.607631
  H      -3.116614      0.718224     -3.760231
  C      -1.153311      1.267406     -3.086728
  H      -1.481040      1.151648     -2.051474
  H      -0.706112      0.305632     -3.358596
  C      -0.086419      2.370409     -3.165584
  H      -0.555895      3.315468     -3.455449
  H       0.625227      2.142509     -3.964766
  C       0.673191      2.587073     -1.856538
  H       1.078864      1.636503     -1.497597
  H      -0.035650      2.913374     -1.088839
  C       1.800045      3.608347     -1.969352
  H       2.303653      3.750792     -1.011134
  H       2.552392      3.289696     -2.694946
  H       1.421666      4.581348     -2.292475
20
Coordinates from ORCA-job 9 Relaxed Surface Scan Step 14
  C      -2.055019      1.533602     -5.465950
  H      -1.406077      2.372200     -5.724948
  H      -1.537027      0.613763     -5.749884
  H      -2.951888      1.611603     -6.083826
  C      -2.413994      1.526573     -3.982418
  H      -2.933769      2.457229     -3.725611
  H      -3.131285      0.722177     -3.796102
  C      -1.226888      1.348252     -3.032927
  H      -1.615587      1.298383     -2.012848
  H      -0.753454      0.377451     -3.215539
  C      -0.167273      2.451309     -3.115010
  H      -0.657786      3.417649     -3.271300
  H       0.463359      2.294186     -3.995204
  C       0.716897      2.543111     -1.871610
  H       1.154739      1.563985     -1.654953
  H       0.089747      2.785129     -1.007826
  C       1.829814      3.578960     -1.992449
  H       2.426955      3.627720     -1.079695
  H       2.505159      3.340739     -2.817791
  H       1.423678      4.576734     -2.176173
20
Coordinates from ORCA-job 9 Relaxed Surface Scan Step 15
  C      -1.994737      1.436077     -5.475874
  H      -1.326667      2.245174     -5.776025
  H      -1.473338      0.491906     -5.653810
  H      -2.860455      1.465209     -6.140645
  C      -2.426377      1.560241     -4.016672
  H      -2.939894      2.516230     -3.869397
  H      -3.168961      0.786251     -3.803023
  C      -1.294296      1.437064     -2.993423
  H      -1.736196      1.436419     -1.992621
  H      -0.808585      0.461497     -3.106462
  C      -0.235629      2.537850     -3.063262
  H      -0.730281      3.515434     -3.066956
  H       0.309433      2.472056     -4.009424
  C       0.765479      2.488982     -1.910083
  H       1.239108      1.502628     -1.881892
  H       0.227381      2.590659     -0.962417
  C       1.843746      3.564462     -1.995469
  H       2.533490      3.502144     -1.151395
  H       2.431431      3.464900     -2.911323
  H       1.405650      4.565572     -1.991887
20
Coordinates from ORCA-job 9 Relaxed Surface Scan Step 16
  C      -1.937984      1.312027     -5.467063
  H      -1.198886      2.039100     -5.807622
  H      -1.479852      0.321342     -5.524913
  H      -2.766586      1.334056     -6.177846
  C      -2.429619      1.608876     -4.051993
  H      -2.888012      2.601890     -4.030172
  H      -3.228412      0.903824     -3.805726
  C      -1.354750      1.522265     -2.964397
  H      -1.843969      1.549050     -1.985175
  H      -0.861700      0.545988     -3.027804
  C      -0.299704      2.627716     -3.007956
  H      -0.787685      3.594777     -2.840012
  H       0.149235      2.682398     -4.003802
  C       0.813101      2.438444     -1.979130
  H       1.314229      1.483849     -2.169887
  H       0.373688      2.355612     -0.979995
  C       1.845822      3.560917     -1.985440
  H       2.625708      3.386431     -1.241516
  H       2.331676      3.646671     -2.960526
  H       1.383999      4.525518     -1.761086
20
Coordinates from ORCA-job 9 Relaxed Surface Scan Step 17
  C      -1.867714      1.190054     -5.431912
  H      -1.020468      1.796213     -5.757995
  H      -1.530570      0.151852     -5.379555
  H      -2.630292      1.250592     -6.211092
  C      -2.423716      1.654058     -4.087275
  H      -2.798359      2.676138     -4.187799
  H      -3.290160      1.036109     -3.836879
  C      -1.417719      1.592789     -2.932880
  H      -1.957300      1.628148     -1.980488
  H      -0.914385      0.620341     -2.956581
  C      -0.373085      2.712755     -2.939366
  H      -0.843269      3.640718     -2.592990
  H      -0.034153      2.908364     -3.960877
  C       0.846107      2.405588     -2.073225
  H       1.345998      1.519691     -2.479264
  H       0.518111      2.135096     -1.064350
  C       1.843740      3.556035     -1.990404
  H       2.707476      3.289003     -1.378289
  H       2.212677      3.831662     -2.981499
  H       1.387381      4.445546     -1.549341
20
Coordinates from ORCA-job 9 Relaxed Surface Scan Step 18
  C      -1.738131      1.125438     -5.373109
  H      -0.840949      1.691434     -5.632255
  H      -1.442161      0.082313     -5.237445
  H      -2.411001      1.169218     -6.231970
  C      -2.415398      1.670160     -4.117385
  H      -2.762907      2.688178     -4.311878
  H      -3.310322      1.075229     -3.916254
  C      -1.518087      1.665790     -2.875063
  H      -2.140756      1.743507     -1.978055
  H      -1.022256      0.691846     -2.810017
  C      -0.465797      2.786842     -2.846659
  H      -0.881737      3.657787     -2.327650
  H      -0.244482      3.122890     -3.863874
  C       0.845875      2.377661     -2.179902
  H       1.289802      1.565158     -2.765475
  H       0.638782      1.962656     -1.188257
  C       1.849690      3.518398     -2.053437
  H       2.779715      3.179082     -1.592990
  H       2.098142      3.937482     -3.031702
  H       1.452278      4.329683     -1.438685
20
Coordinates from ORCA-job 9 Relaxed Surface Scan Step 19
  C      -1.542865      1.135418     -5.292908
  H      -0.671920      1.767585     -5.477976
  H      -1.179678      0.125424     -5.087110
  H      -2.120354      1.096767     -6.218809
  C      -2.393809      1.656998     -4.137665
  H      -2.794282      2.641874     -4.396591
  H      -3.260532      1.001138     -4.016429
  C      -1.651741      1.746224     -2.800688
  H      -2.384442      1.911515     -2.006561
  H      -1.203010      0.770674     -2.588214
  C      -0.569029      2.844557     -2.731516
  H      -0.892624      3.633358     -2.045999
  H      -0.463891      3.330742     -3.705798
  C       0.804092      2.339797     -2.289218
  H       1.146528      1.577327     -2.996478
  H       0.709329      1.834963     -1.322581
  C       1.853052      3.441398     -2.184564
  H       2.820075      3.039921     -1.875057
  H       1.995482      3.945520     -3.143682
  H       1.559920      4.199552     -1.454217
20
Coordinates from ORCA-job 9 Relaxed Surface Scan Step 20
  C      -1.365876      1.148300     -5.205995
  H      -0.531054      1.837267     -5.348773
  H      -0.949913      0.177166     -4.926154
  H      -1.859334      1.030041     -6.172844
  C      -2.348317      1.651111     -4.151717
  H      -2.771243      2.608617     -4.474720
  H      -3.190761      0.955579     -4.096201
  C      -1.761414      1.815023     -2.746436
  H      -2.581012      2.064153     -2.069378
  H      -1.383699      0.846448     -2.403127
  C      -0.650767      2.878649     -2.618708
  H      -0.883739      3.552146     -1.789562
  H      -0.640850      3.512905     -3.510863
  C       0.750025      2.306696     -2.394240
  H       0.992545      1.599729     -3.192754
  H       0.749636      1.722229     -1.468805
  C       1.835355      3.374941     -2.315717
  H       2.817478      2.930291     -2.142954
  H       1.891529      3.952194     -3.241936
  H       1.641712      4.077267     -1.501176
20
Coordinates from ORCA-job 9 Relaxed Surface Scan Step 21
  C      -1.285940      1.085083     -5.145917
  H      -0.456767      1.772516     -5.320781
  H      -0.867695      0.143593     -4.781255
  H      -1.751625      0.886635     -6.113460
  C      -2.307389      1.657024     -4.166529
  H      -2.686946      2.605865     -4.559558
  H      -3.169279      0.984422     -4.129199
  C      -1.818559      1.878466     -2.730683
  H      -2.680296      2.209088     -2.145735
  H      -1.519147      0.918574     -2.296477
  C      -0.681086      2.899703     -2.550429
  H      -0.839435      3.442788     -1.614275
  H      -0.738926      3.656208     -3.340677
  C       0.729268      2.306921     -2.512277
  H       0.922173      1.728638     -3.418266
  H       0.788862      1.594261     -1.683704
  C       1.818768      3.361717     -2.347699
  H       2.809491      2.904737     -2.305607
  H       1.815474      4.068599     -3.181134
  H       1.679358      3.935915     -1.428401
20
Coordinates from ORCA-job 9 Relaxed Surface Scan Step 22
  C      -1.289037      0.944181     -5.101288
  H      -0.412459      1.548496     -5.335108
  H      -0.941608      0.013646     -4.645469
  H      -1.766120      0.688720     -6.049779
  C      -2.273512      1.676918     -4.192455
  H      -2.543935      2.631426     -4.654277
  H      -3.198960      1.095062     -4.153215
  C      -1.832665      1.931271     -2.745423
  H      -2.707854      2.316675     -2.214714
  H      -1.592302      0.976465     -2.264821
  C      -0.680552      2.921008     -2.515330
  H      -0.781933      3.321158     -1.501808
  H      -0.798894      3.779815     -3.185578
  C       0.737642      2.361342     -2.645634
  H       0.913828      1.991941     -3.656636
  H       0.839269      1.494745     -1.984674
  C       1.813099      3.386743     -2.298814
  H       2.813105      2.957962     -2.389739
  H       1.763133      4.253250     -2.962935
  H       1.700056      3.749928     -1.274366
20
Coordinates from ORCA-job 9 Relaxed Surface Scan Step 23
  C      -1.342264      0.736037     -5.024621
  H      -0.305126      1.052935     -5.126693
  H      -1.342179     -0.242508     -4.538134
  H      -1.742440      0.601609     -6.031858
  C      -2.191400      1.735561     -4.240568
  H      -2.188418      2.703922     -4.752090
  H      -3.227567      1.387985     -4.276445
  C      -1.818230      1.941394     -2.764289
  H      -2.709759      2.308994     -2.250125
  H      -1.594806      0.971787     -2.305629
  C      -0.685876      2.928438     -2.452137
  H      -0.729813      3.153421     -1.381786
  H      -0.889242      3.877514     -2.960320
  C       0.738201      2.476954     -2.779809
  H       0.859692      2.357010     -3.857605
  H       0.914146      1.489142     -2.342090
  C       1.797902      3.450069     -2.270962
  H       2.803568      3.109861     -2.526008
  H       1.664326      4.443528     -2.706302
  H       1.749585      3.557099     -1.184591
20
Coordinates from ORCA-job 9 Relaxed Surface Scan Step 24
  C      -1.352041      0.611173     -4.931469
  H      -0.269063      0.702293     -4.847812
  H      -1.639053     -0.335382     -4.467003
  H      -1.596126      0.543026     -5.993855
  C      -2.088922      1.780521     -4.279527
  H      -1.841905      2.708009     -4.805113
  H      -3.159879      1.629461     -4.437498
  C      -1.837164      1.958072     -2.771673
  H      -2.749314      2.347078     -2.311056
  H      -1.670758      0.976110     -2.315952
  C      -0.701748      2.906193     -2.369364
  H      -0.671940      2.942347     -1.275497
  H      -0.956066      3.920672     -2.695727
  C       0.697288      2.563686     -2.880618
  H       0.719909      2.632015     -3.971115
  H       0.935066      1.524714     -2.631496
  C       1.775949      3.478929     -2.308282
  H       2.761926      3.223539     -2.701675
  H       1.580587      4.524725     -2.558059
  H       1.823557      3.403573     -1.219271
