18
Coordinates from ORCA-job 10 Relaxed Surface Scan Step 1
  C      67.938874     -6.667269     -7.240509
  H      68.656984     -7.227754     -6.632776
  C      67.413834     -5.538740     -6.327740
  H      67.068502     -6.012813     -5.408425
  O      68.591891     -6.071489     -8.323247
  H      69.161210     -6.690587     -8.750349
  C      66.210093     -4.834450     -6.926804
  O      66.238504     -3.865620     -7.602165
  O      65.065134     -5.425959     -6.600075
  H      64.353283     -4.952132     -7.013872
  C      68.510282     -4.530993     -5.988652
  H      68.157179     -3.810899     -5.249096
  H      69.377881     -5.045073     -5.571536
  H      68.820556     -3.988857     -6.877024
  C      66.881855     -7.655683     -7.718253
  H      67.363707     -8.470098     -8.264189
  H      66.330700     -8.087983     -6.882642
  H      66.171530     -7.178601     -8.392647
18
Coordinates from ORCA-job 10 Relaxed Surface Scan Step 2
  C      67.915043     -6.684674     -7.268370
  H      68.639499     -7.245877     -6.672189
  C      67.408756     -5.553640     -6.342790
  H      67.078213     -6.027515     -5.417422
  O      68.550182     -6.124742     -8.384023
  H      69.418745     -6.474902     -8.488417
  C      66.199626     -4.843739     -6.921453
  O      66.226020     -3.888675     -7.616721
  O      65.055473     -5.411790     -6.554903
  H      64.340147     -4.937787     -6.962499
  C      68.515661     -4.550330     -6.027662
  H      68.182913     -3.823519     -5.285379
  H      69.388907     -5.065923     -5.622704
  H      68.809802     -4.013166     -6.925088
  C      66.843156     -7.664228     -7.726050
  H      67.312680     -8.481582     -8.275435
  H      66.293544     -8.082478     -6.882147
  H      66.133631     -7.180433     -8.396748
18
Coordinates from ORCA-job 10 Relaxed Surface Scan Step 3
  C      67.906859     -6.752804     -7.267079
  H      68.588190     -7.349920     -6.652773
  C      67.428069     -5.589003     -6.359161
  H      67.112050     -6.034152     -5.415374
  O      68.575246     -6.293699     -8.401830
  H      69.386446     -5.874148     -8.162552
  C      66.220698     -4.882974     -6.943314
  O      66.253145     -3.981200     -7.707082
  O      65.074975     -5.388215     -6.502705
  H      64.359442     -4.924721     -6.922145
  C      68.545516     -4.584751     -6.078436
  H      68.236482     -3.856564     -5.327865
  H      69.432254     -5.095932     -5.696032
  H      68.808985     -4.032776     -6.978948
  C      66.799111     -7.677224     -7.741923
  H      67.240980     -8.521954     -8.269708
  H      66.208504     -8.051773     -6.906079
  H      66.135049     -7.163190     -8.436994
18
Coordinates from ORCA-job 10 Relaxed Surface Scan Step 4
  C      67.915371     -6.776624     -7.234930
  H      68.466455     -7.445485     -6.569489
  C      67.438005     -5.586366     -6.349261
  H      67.186060     -5.998762     -5.372750
  O      68.748784     -6.366494     -8.276049
  H      69.586022     -6.090749     -7.936256
  C      66.175491     -4.948303     -6.894536
  O      66.126512     -4.133415     -7.750009
  O      65.079590     -5.412715     -6.306891
  H      64.323958     -4.997510     -6.706224
  C      68.526251     -4.529910     -6.160657
  H      68.213231     -3.774746     -5.438711
  H      69.442268     -4.986455     -5.777148
  H      68.743235     -4.026921     -7.100424
  C      66.790190     -7.590354     -7.851072
  H      67.212337     -8.455561     -8.361261
  H      66.087855     -7.935245     -7.092501
  H      66.250385     -6.999386     -8.591831
18
Coordinates from ORCA-job 10 Relaxed Surface Scan Step 5
  C      67.912092     -6.805097     -7.198440
  H      68.315292     -7.533511     -6.492787
  C      67.449313     -5.577997     -6.338767
  H      67.268818     -5.947698     -5.330400
  O      68.899589     -6.470008     -8.127070
  H      69.725687     -6.330479     -7.690508
  C      66.134471     -4.997891     -6.822735
  O      66.004971     -4.210573     -7.695922
  O      65.092753     -5.477413     -6.154381
  H      64.300994     -5.095629     -6.515223
  C      68.506876     -4.476754     -6.261444
  H      68.185504     -3.682862     -5.586115
  H      69.447746     -4.871873     -5.871521
  H      68.684760     -4.041723     -7.241571
  C      66.797645     -7.500784     -7.961912
  H      67.200593     -8.385467     -8.453705
  H      65.991209     -7.806192     -7.295614
  H      66.393686     -6.843049     -8.731886
18
Coordinates from ORCA-job 10 Relaxed Surface Scan Step 6
  C      67.890789     -6.839082     -7.145842
  H      68.125759     -7.612017     -6.410711
  C      67.465184     -5.561826     -6.324742
  H      67.360064     -5.873589     -5.286096
  O      69.015624     -6.609629     -7.942879
  H      69.794119     -6.560636     -7.412065
  C      66.103373     -5.033097     -6.730572
  O      65.899479     -4.201419     -7.546565
  O      65.114742     -5.607041     -6.054857
  H      64.290206     -5.250484     -6.364225
  C      68.492841     -4.431849     -6.389506
  H      68.172920     -3.593104     -5.770428
  H      69.460418     -4.765050     -6.010918
  H      68.620505     -4.076639     -7.408485
  C      66.819016     -7.400844     -8.065663
  H      67.207143     -8.293947     -8.553880
  H      65.919114     -7.667456     -7.513308
  H      66.560704     -6.677291     -8.839261
18
Coordinates from ORCA-job 10 Relaxed Surface Scan Step 7
  C      67.853646     -6.875776     -7.088631
  H      67.900105     -7.678475     -6.345707
  C      67.482812     -5.553977     -6.308543
  H      67.460545     -5.803232     -5.245896
  O      69.091259     -6.774311     -7.730410
  H      69.793214     -6.715604     -7.105110
  C      66.082312     -5.072561     -6.627186
  O      65.810427     -4.202486     -7.380870
  O      65.150427     -5.734871     -5.951354
  H      64.297338     -5.402498     -6.205097
  C      68.472760     -4.411046     -6.534151
  H      68.160251     -3.527866     -5.977116
  H      69.469456     -4.682420     -6.187073
  H      68.535553     -4.144017     -7.586059
  C      66.864581     -7.286718     -8.167764
  H      67.234773     -8.187346     -8.655892
  H      65.881001     -7.497059     -7.751279
  H      66.771541     -6.504738     -8.921861
18
Coordinates from ORCA-job 10 Relaxed Surface Scan Step 8
  C      67.796246     -6.906341     -7.034345
  H      67.614449     -7.713978     -6.315290
  C      67.501302     -5.552563     -6.294917
  H      67.584475     -5.742999     -5.218979
  O      69.120856     -6.968419     -7.475634
  H      69.723517     -6.794887     -6.774051
  C      66.068187     -5.119371     -6.510826
  O      65.724882     -4.231400     -7.212561
  O      65.203539     -5.855928     -5.823875
  H      64.323606     -5.554491     -6.017480
  C      68.441732     -4.416008     -6.695173
  H      68.150869     -3.493235     -6.194572
  H      69.470049     -4.636148     -6.413326
  H      68.413841     -4.236701     -7.767959
  C      66.945612     -7.154009     -8.270010
  H      67.289618     -8.068290     -8.752072
  H      65.893499     -7.275402     -8.016434
  H      67.045722     -6.334831     -8.982495
18
Coordinates from ORCA-job 10 Relaxed Surface Scan Step 9
  C      67.749944     -6.907394     -7.009889
  H      67.380338     -7.686783     -6.333458
  C      67.507322     -5.536469     -6.307701
  H      67.691030     -5.690007     -5.236319
  O      69.111230     -7.105164     -7.256692
  H      69.620102     -6.961482     -6.477159
  C      66.050492     -5.146143     -6.412234
  O      65.631606     -4.240919     -7.047466
  O      65.257725     -5.951132     -5.715623
  H      64.357036     -5.674702     -5.837630
  C      68.395293     -4.408929     -6.829588
  H      68.165734     -3.477285     -6.313625
  H      69.447427     -4.635827     -6.671818
  H      68.240496     -4.241046     -7.893794
  C      67.051881     -7.059967     -8.351436
  H      67.351068     -8.008840     -8.795496
  H      65.967625     -7.061513     -8.243170
  H      67.335650     -6.261401     -9.036902
18
Coordinates from ORCA-job 10 Relaxed Surface Scan Step 10
  C      67.724466     -6.896186     -7.007275
  H      67.225602     -7.642609     -6.380782
  C      67.501008     -5.513897     -6.335813
  H      67.768057     -5.640742     -5.279182
  O      69.090141     -7.183753     -7.089059
  H      69.479753     -7.194110     -6.230339
  C      66.030527     -5.159458     -6.330959
  O      65.543797     -4.241559     -6.895732
  O      65.306573     -6.011861     -5.615194
  H      64.394352     -5.750686     -5.660401
  C      68.334007     -4.386205     -6.937961
  H      68.196869     -3.466383     -6.369921
  H      69.389594     -4.648598     -6.927176
  H      68.040795     -4.178943     -7.965470
  C      67.171019     -7.005586     -8.417789
  H      67.386921     -8.000264     -8.806921
  H      66.091104     -6.856726     -8.439330
  H      67.637416     -6.277435     -9.080697
18
Coordinates from ORCA-job 10 Relaxed Surface Scan Step 11
  C      67.700221     -6.887510     -7.016224
  H      67.085628     -7.602096     -6.463308
  C      67.487060     -5.496711     -6.366512
  H      67.835704     -5.598192     -5.333704
  O      69.046518     -7.257536     -6.926324
  H      69.277696     -7.431439     -6.027658
  C      66.012608     -5.173907     -6.250554
  O      65.456930     -4.274275     -6.780194
  O      65.369310     -6.029906     -5.464280
  H      64.452042     -5.784983     -5.434386
  C      68.258983     -4.367904     -7.041523
  H      68.207625     -3.457370     -6.444540
  H      69.303910     -4.651964     -7.153959
  H      67.849854     -4.134561     -8.022740
  C      67.311126     -6.956632     -8.482508
  H      67.429787     -7.979689     -8.838909
  H      66.274159     -6.654488     -8.636666
  H      67.952838     -6.315835     -9.086011
18
Coordinates from ORCA-job 10 Relaxed Surface Scan Step 12
  C      67.666323     -6.884791     -7.037539
  H      66.940253     -7.557714     -6.580455
  C      67.475901     -5.483853     -6.400187
  H      67.908084     -5.565654     -5.400866
  O      68.959566     -7.354177     -6.777403
  H      69.026300     -7.617502     -5.871641
  C      66.010932     -5.178826     -6.163967
  O      65.397104     -4.287640     -6.640999
  O      65.450538     -6.037495     -5.318251
  H      64.537436     -5.800786     -5.206983
  C      68.184584     -4.351182     -7.134293
  H      68.163177     -3.437186     -6.540899
  H      69.224868     -4.623367     -7.310373
  H      67.710145     -4.129869     -8.088567
  C      67.452231     -6.922103     -8.539981
  H      67.515690     -7.952934     -8.888264
  H      66.472346     -6.523888     -8.809529
  H      68.216522     -6.346032     -9.059802
18
Coordinates from ORCA-job 10 Relaxed Surface Scan Step 13
  C      67.620798     -6.886028     -7.069682
  H      66.789063     -7.499456     -6.724873
  C      67.471280     -5.473076     -6.433060
  H      67.986699     -5.545271     -5.475015
  O      68.822022     -7.474338     -6.654417
  H      68.739687     -7.751301     -5.753199
  C      66.028716     -5.179689     -6.074747
  O      65.364529     -4.298469     -6.499848
  O      65.555216     -6.037587     -5.175991
  H      64.652595     -5.810877     -4.986341
  C      68.107793     -4.329028     -7.214560
  H      68.078673     -3.408684     -6.631652
  H      69.150137     -4.562971     -7.430646
  H      67.587765     -4.137660     -8.151384
  C      67.593289     -6.903348     -8.587141
  H      67.621517     -7.936490     -8.933194
  H      66.685615     -6.433707     -8.969810
  H      68.456605     -6.387020     -9.004439
18
Coordinates from ORCA-job 10 Relaxed Surface Scan Step 14
  C      67.562683     -6.884650     -7.111241
  H      66.632852     -7.413496     -6.895144
  C      67.475510     -5.463543     -6.461875
  H      68.070086     -5.537346     -5.551068
  O      68.628694     -7.606298     -6.560667
  H      68.422440     -7.837557     -5.667126
  C      66.064208     -5.186126     -5.990417
  O      65.340224     -4.343597     -6.395458
  O      65.694159     -6.021466     -5.023577
  H      64.800752     -5.820313     -4.771562
  C      68.027473     -4.302408     -7.283181
  H      67.992117     -3.381487     -6.701521
  H      69.065785     -4.490821     -7.554224
  H      67.451990     -4.135422     -8.191632
  C      67.737214     -6.894974     -8.618880
  H      67.736402     -7.928314     -8.965154
  H      66.925105     -6.362725     -9.115103
  H      68.684305     -6.444457     -8.912169
18
Coordinates from ORCA-job 10 Relaxed Surface Scan Step 15
  C      67.504466     -6.873757     -7.153127
  H      66.501192     -7.301890     -7.066024
  C      67.484620     -5.451443     -6.490078
  H      68.154175     -5.528734     -5.632066
  O      68.410092     -7.711141     -6.492511
  H      68.104087     -7.886043     -5.616585
  C      66.114208     -5.190936     -5.907708
  O      65.350858     -4.359351     -6.259521
  O      65.828583     -6.037992     -4.922012
  H      64.951023     -5.857919     -4.606100
  C      67.939034     -4.274758     -7.349566
  H      67.929783     -3.358140     -6.760315
  H      68.953848     -4.431054     -7.711774
  H      67.281786     -4.117636     -8.202660
  C      67.879062     -6.900912     -8.623905
  H      67.829480     -7.931215     -8.975282
  H      67.198743     -6.297563     -9.223970
  H      68.896961     -6.544517     -8.776797
18
Coordinates from ORCA-job 10 Relaxed Surface Scan Step 16
  C      67.450389     -6.853856     -7.196569
  H      66.401960     -7.174056     -7.237937
  C      67.494528     -5.439527     -6.521335
  H      68.235806     -5.520027     -5.723237
  O      68.180126     -7.782372     -6.448235
  H      67.784920     -7.903222     -5.600839
  C      66.177622     -5.192577     -5.824495
  O      65.407185     -4.332071     -6.077154
  O      65.946809     -6.091572     -4.869766
  H      65.097583     -5.918585     -4.480589
  C      67.847330     -4.253214     -7.414973
  H      67.866280     -3.336687     -6.826469
  H      68.829080     -4.384650     -7.865893
  H      67.113233     -4.112848     -8.206888
  C      68.011896     -6.914891     -8.605690
  H      67.922796     -7.938450     -8.968474
  H      67.475631     -6.257554     -9.288333
  H      69.068827     -6.648841     -8.613124
18
Coordinates from ORCA-job 10 Relaxed Surface Scan Step 17
  C      67.400144     -6.830033     -7.247077
  H      66.336129     -7.038363     -7.424633
  C      67.502189     -5.433823     -6.555460
  H      68.315112     -5.519940     -5.829713
  O      67.938711     -7.829361     -6.433269
  H      67.464775     -7.884682     -5.620430
  C      66.252404     -5.195897     -5.739864
  O      65.504447     -4.289296     -5.866249
  O      66.050239     -6.156077     -4.837849
  H      65.243441     -5.975285     -4.369534
  C      67.755779     -4.240341     -7.472951
  H      67.778345     -3.319665     -6.892277
  H      68.710013     -4.340978     -7.986154
  H      66.967628     -4.132930     -8.218038
  C      68.133245     -6.933663     -8.572626
  H      68.033054     -7.953504     -8.942566
  H      67.730054     -6.252942     -9.320471
  H      69.196291     -6.728219     -8.440839
18
Coordinates from ORCA-job 10 Relaxed Surface Scan Step 18
  C      67.350999     -6.806831     -7.313638
  H      66.308486     -6.899122     -7.648480
  C      67.500262     -5.437601     -6.593422
  H      68.383744     -5.529987     -5.954962
  O      67.672332     -7.863639     -6.461165
  H      67.142574     -7.828596     -5.680988
  C      66.331313     -5.206679     -5.656329
  O      65.615699     -4.266428     -5.661871
  O      66.159458     -6.202306     -4.784999
  H      65.409460     -6.002524     -4.236335
  C      67.657411     -4.234179     -7.520348
  H      67.674149     -3.311630     -6.943704
  H      68.585291     -4.299299     -8.084869
  H      66.826731     -4.162188     -8.223728
  C      68.252908     -6.958345     -8.526418
  H      68.153036     -7.975355     -8.903860
  H      67.990869     -6.266558     -9.325080
  H      69.297278     -6.803734     -8.249805
18
Coordinates from ORCA-job 10 Relaxed Surface Scan Step 19
  C      67.293170     -6.773066     -7.412413
  H      66.324548     -6.722839     -7.926133
  C      67.487952     -5.444955     -6.633997
  H      68.419307     -5.552069     -6.071514
  O      67.331179     -7.881096     -6.565666
  H      66.817573     -7.730866     -5.786673
  C      66.377432     -5.257419     -5.614668
  O      65.519555     -4.446967     -5.663903
  O      66.435125     -6.134643     -4.610625
  H      65.713942     -5.961096     -4.015804
  C      67.567177     -4.216550     -7.538620
  H      67.596920     -3.304437     -6.944868
  H      68.464219     -4.246969     -8.154042
  H      66.697347     -4.150565     -8.192924
  C      68.366199     -7.001088     -8.463939
  H      68.232749     -7.998041     -8.882519
  H      68.307142     -6.278097     -9.275883
  H      69.360464     -6.954237     -8.015810
18
Coordinates from ORCA-job 10 Relaxed Surface Scan Step 20
  C      67.276552     -6.809657     -7.482940
  H      66.295898     -6.699649     -7.952224
  C      67.504124     -5.593941     -6.575346
  H      68.405886     -5.776607     -5.988709
  O      67.290536     -7.973814     -6.698755
  H      66.412178     -8.209857     -6.451173
  C      66.361385     -5.470763     -5.591305
  O      65.249004     -5.832596     -5.787459
  O      66.713089     -4.858336     -4.472671
  H      65.947866     -4.773340     -3.916150
  C      67.646502     -4.255860     -7.315315
  H      67.712328     -3.430821     -6.606100
  H      68.550084     -4.240819     -7.922189
  H      66.790418     -4.075350     -7.968886
  C      68.338705     -6.971342     -8.557814
  H      68.156952     -7.898955     -9.099612
  H      68.327769     -6.149462     -9.273106
  H      69.332725     -7.033831     -8.110245
18
Coordinates from ORCA-job 10 Relaxed Surface Scan Step 21
  C      67.258991     -6.801635     -7.532185
  H      66.311458     -6.630922     -8.053168
  C      67.499198     -5.614828     -6.585706
  H      68.414801     -5.811195     -6.022095
  O      67.187223     -7.992525     -6.803197
  H      66.351027     -8.039055     -6.366380
  C      66.390177     -5.534839     -5.557444
  O      65.357492     -6.118125     -5.611061
  O      66.674546     -4.713255     -4.561188
  H      65.938943     -4.692953     -3.960348
  C      67.633809     -4.258258     -7.292463
  H      67.735927     -3.453446     -6.566425
  H      68.514135     -4.241233     -7.932059
  H      66.758915     -4.049798     -7.912630
  C      68.363901     -6.979857     -8.559915
  H      68.167947     -7.884180     -9.134761
  H      68.422528     -6.140502     -9.251844
  H      69.330983     -7.098395     -8.067132
18
Coordinates from ORCA-job 10 Relaxed Surface Scan Step 22
  C      67.245288     -6.773390     -7.604741
  H      66.401445     -6.500856     -8.250282
  C      67.487165     -5.608737     -6.621284
  H      68.448606     -5.768013     -6.124718
  O      66.970434     -7.961515     -6.932880
  H      66.172263     -7.843049     -6.434227
  C      66.461100     -5.590467     -5.504033
  O      65.501670     -6.288416     -5.421744
  O      66.734679     -4.686543     -4.580567
  H      66.062799     -4.720694     -3.909547
  C      67.522180     -4.235318     -7.308076
  H      67.728343     -3.445203     -6.588853
  H      68.299723     -4.205322     -8.068995
  H      66.568312     -4.016059     -7.792943
  C      68.451539     -7.039720     -8.490611
  H      68.231933     -7.883673     -9.143703
  H      68.708228     -6.183287     -9.113153
  H      69.316294     -7.304736     -7.879644
18
Coordinates from ORCA-job 10 Relaxed Surface Scan Step 23
  C      67.256245     -6.714399     -7.719499
  H      66.667209     -6.332463     -8.560654
  C      67.465480     -5.548873     -6.705862
  H      68.493059     -5.565603     -6.340137
  O      66.620279     -7.821638     -7.173843
  H      65.835073     -7.532608     -6.722528
  C      66.604608     -5.633622     -5.461086
  O      65.591519     -6.242658     -5.334070
  O      67.094221     -4.900725     -4.476466
  H      66.510029     -4.960918     -3.729440
  C      67.246718     -4.178862     -7.367895
  H      67.502455     -3.365432     -6.689952
  H      67.875899     -4.090098     -8.253984
  H      66.208108     -4.056942     -7.681104
  C      68.586955     -7.183083     -8.283111
  H      68.417415     -7.948205     -9.040469
  H      69.139645     -6.359819     -8.739611
  H      69.197084     -7.619053     -7.490290
18
Coordinates from ORCA-job 10 Relaxed Surface Scan Step 24
  C      67.401852     -6.529512     -7.763161
  H      67.251745     -6.199317     -8.797562
  C      67.467472     -5.238183     -6.897387
  H      68.517639     -4.964044     -6.784374
  O      66.345090     -7.362167     -7.377182
  H      65.512297     -6.927761     -7.468780
  C      66.938326     -5.525650     -5.508689
  O      65.875615     -5.186950     -5.110689
  O      67.791957     -6.203703     -4.759349
  H      67.379097     -6.396647     -3.925822
  C      66.702016     -4.077931     -7.531056
  H      66.734139     -3.189178     -6.901657
  H      67.136996     -3.826658     -8.499378
  H      65.651643     -4.330722     -7.680045
  C      68.666952     -7.364761     -7.700252
  H      68.548052     -8.252191     -8.321807
  H      69.524077     -6.796360     -8.064541
  H      68.867037     -7.683265     -6.678269
