24
Coordinates from ORCA-job 12 Relaxed Surface Scan Step 1
  C       1.840170     38.296060     62.331415
  H       2.114843     37.410830     61.753446
  C       3.146297     39.048663     62.638975
  H       3.496229     39.456028     61.686315
  O       1.067848     39.144378     61.520785
  H       0.358172     38.661218     61.131082
  C       4.237170     38.082496     63.057724
  O       4.102267     36.923067     63.264513
  O       5.422362     38.668207     63.154319
  H       6.062055     38.014578     63.410116
  C       3.055450     40.221657     63.640407
  H       4.059868     40.623838     63.764362
  H       2.760649     39.841011     64.621766
  C       1.066977     37.825200     63.563345
  H       1.743473     37.243978     64.190590
  H       0.745036     38.693075     64.142133
  C      -0.151997     36.971908     63.220691
  H      -0.644759     36.618970     64.127826
  H      -0.896643     37.534474     62.652328
  H       0.129712     36.092407     62.636245
  C       2.131479     41.366681     63.233434
  H       1.089385     41.062541     63.178619
  H       2.215772     42.178592     63.958866
  H       2.405176     41.761964     62.253736
24
Coordinates from ORCA-job 12 Relaxed Surface Scan Step 2
  C       1.847806     38.260995     62.347188
  H       2.179243     37.327852     61.878334
  C       3.130002     39.058023     62.648692
  H       3.401767     39.531042     61.703646
  O       1.120126     39.023616     61.417555
  H       0.418314     38.509873     61.053277
  C       4.262526     38.121911     63.013837
  O       4.145566     37.003298     63.388325
  O       5.452802     38.690434     62.882950
  H       6.117795     38.066273     63.147842
  C       3.051126     40.180914     63.704724
  H       4.070648     40.534716     63.873783
  H       2.711849     39.768037     64.657555
  C       0.990183     37.899872     63.559088
  H       1.619690     37.421103     64.307045
  H       0.597525     38.815573     64.004857
  C      -0.171879     36.969000     63.219840
  H      -0.733644     36.708419     64.118069
  H      -0.878791     37.433044     62.527602
  H       0.182334     36.037888     62.770902
  C       2.174085     41.363535     63.304532
  H       1.141397     41.068230     63.129974
  H       2.187031     42.123457     64.088367
  H       2.539489     41.824715     62.385055
24
Coordinates from ORCA-job 12 Relaxed Surface Scan Step 3
  C       1.868943     38.193845     62.382977
  H       2.256974     37.214915     62.077770
  C       3.118139     39.058038     62.662995
  H       3.298144     39.586225     61.727730
  O       1.210166     38.809610     61.303303
  H       0.544088     38.238138     60.958380
  C       4.316238     38.177939     62.945711
  O       4.277113     37.085912     63.404958
  O       5.464870     38.771131     62.652950
  H       6.176436     38.188184     62.889352
  C       3.057357     40.135582     63.766118
  H       4.086925     40.461899     63.945122
  H       2.709559     39.694296     64.702273
  C       0.904153     37.974967     63.547221
  H       1.449592     37.579733     64.400822
  H       0.485260     38.934642     63.853862
  C      -0.235289     37.014605     63.211624
  H      -0.867140     36.846012     64.084882
  H      -0.882784     37.406605     62.423824
  H       0.145475     36.042782     62.887886
  C       2.203663     41.345261     63.398187
  H       1.178110     41.064867     63.161102
  H       2.179368     42.062214     64.221038
  H       2.611630     41.854417     62.522950
24
Coordinates from ORCA-job 12 Relaxed Surface Scan Step 4
  C       1.892052     38.096464     62.450094
  H       2.303447     37.085272     62.410111
  C       3.098311     39.045647     62.676643
  H       3.181284     39.627129     61.760539
  O       1.367040     38.442506     61.190295
  H       0.810935     37.752311     60.868351
  C       4.382946     38.252524     62.809010
  O       4.480858     37.149180     63.229743
  O       5.444297     38.949944     62.428060
  H       6.221241     38.423101     62.571927
  C       3.053579     40.060751     63.843633
  H       4.082433     40.361511     64.057313
  H       2.684454     39.579651     64.750103
  C       0.793022     38.091892     63.512547
  H       1.228331     37.826156     64.475179
  H       0.369365     39.090768     63.618022
  C      -0.329744     37.104085     63.201969
  H      -1.053787     37.074556     64.017551
  H      -0.877147     37.383382     62.299514
  H       0.056308     36.090035     63.068360
  C       2.243451     41.316876     63.533848
  H       1.214226     41.089520     63.258102
  H       2.219884     41.982106     64.399080
  H       2.690206     41.866454     62.703043
24
Coordinates from ORCA-job 12 Relaxed Surface Scan Step 5
  C       1.913334     38.041631     62.513537
  H       2.275470     37.058121     62.808253
  C       3.081649     39.043675     62.674623
  H       3.088748     39.668848     61.781679
  O       1.625640     38.015548     61.135813
  H       1.239013     37.189181     60.897832
  C       4.405522     38.301691     62.623846
  O       4.590773     37.171221     62.924566
  O       5.395224     39.084999     62.216793
  H       6.203164     38.586266     62.232238
  C       3.083170     39.975358     63.914022
  H       4.100928     40.314812     64.094059
  H       2.799675     39.413480     64.805246
  C       0.660381     38.310026     63.344089
  H       0.955405     38.392355     64.394949
  H       0.213836     39.259088     63.048281
  C      -0.384490     37.206039     63.203302
  H      -1.248862     37.405135     63.838741
  H      -0.749270     37.130960     62.177068
  H       0.020900     36.232811     63.492442
  C       2.228183     41.234217     63.776318
  H       1.167784     41.023668     63.659410
  H       2.342644     41.861195     64.662736
  H       2.548169     41.821494     62.913193
24
Coordinates from ORCA-job 12 Relaxed Surface Scan Step 6
  C       1.923751     37.986023     62.626273
  H       2.263006     37.111538     63.181071
  C       3.030894     39.050871     62.683985
  H       2.897365     39.708261     61.822909
  O       1.781759     37.630510     61.272072
  H       1.878073     36.699342     61.163490
  C       4.367893     38.376229     62.444351
  O       4.624899     37.240125     62.661365
  O       5.274527     39.219279     61.971329
  H       6.096588     38.755405     61.866667
  C       3.103078     39.908954     63.973175
  H       4.131760     40.216432     64.150189
  H       2.829445     39.294968     64.834203
  C       0.582894     38.412438     63.213763
  H       0.744547     38.713919     64.253928
  H       0.210436     39.284561     62.671806
  C      -0.461561     37.302452     63.159687
  H      -1.403904     37.631660     63.600983
  H      -0.660988     37.005394     62.129858
  H      -0.130128     36.417902     63.710398
  C       2.270505     41.189787     63.939338
  H       1.206114     41.004447     63.810732
  H       2.398982     41.745948     64.870005
  H       2.597055     41.835375     63.121462
24
Coordinates from ORCA-job 12 Relaxed Surface Scan Step 7
  C       1.891643     37.909142     62.737577
  H       2.204289     37.183675     63.496507
  C       2.944239     39.031385     62.693432
  H       2.663925     39.717436     61.889859
  O       1.811156     37.280028     61.492942
  H       2.574523     36.735003     61.375152
  C       4.281828     38.463144     62.266907
  O       4.551074     37.309417     62.181480
  O       5.166841     39.404534     61.984344
  H       5.984452     38.991781     61.732216
  C       3.097216     39.827560     64.017100
  H       4.152692     39.965946     64.248519
  H       2.692544     39.231656     64.838241
  C       0.496464     38.409968     63.092904
  H       0.533647     38.929432     64.052351
  H       0.190417     39.144743     62.342915
  C      -0.538491     37.292059     63.163941
  H      -1.519907     37.691584     63.426494
  H      -0.622014     36.778343     62.207848
  H      -0.268344     36.552059     63.921563
  C       2.439309     41.204735     63.995877
  H       1.371970     41.146964     63.781114
  H       2.558974     41.703306     64.959501
  H       2.898544     41.837919     63.234252
24
Coordinates from ORCA-job 12 Relaxed Surface Scan Step 8
  C       1.799205     37.889043     62.837646
  H       2.068156     37.362674     63.759898
  C       2.632036     39.189640     62.770872
  H       2.150103     39.886916     62.084347
  O       2.051681     37.066655     61.734718
  H       2.887780     36.639678     61.844020
  C       4.007231     38.888693     62.217547
  O       4.659360     37.942553     62.519787
  O       4.448555     39.799337     61.369559
  H       5.320925     39.553769     61.083199
  C       2.782978     39.851598     64.155048
  H       3.392382     39.196896     64.783180
  H       1.798127     39.896500     64.621851
  C       0.301016     38.172493     62.845059
  H       0.069219     38.918435     63.606964
  H       0.045046     38.617952     61.880079
  C      -0.546942     36.926425     63.074922
  H      -1.610262     37.171083     63.045242
  H      -0.347894     36.177199     62.310008
  H      -0.337031     36.479013     64.049776
  C       3.382508     41.255098     64.134802
  H       2.781591     41.932865     63.525240
  H       3.424633     41.663499     65.145793
  H       4.396585     41.263807     63.733482
24
Coordinates from ORCA-job 12 Relaxed Surface Scan Step 9
  C       1.791614     37.892700     62.903880
  H       1.963349     37.460755     63.896897
  C       2.618477     39.203792     62.810716
  H       2.088361     39.924742     62.188224
  O       2.144296     36.968932     61.916981
  H       3.002546     36.617130     62.100307
  C       3.959295     38.939141     62.163817
  O       4.695778     38.064785     62.488587
  O       4.267375     39.794285     61.207384
  H       5.125163     39.572422     60.863271
  C       2.855617     39.814088     64.204239
  H       3.529497     39.148971     64.750604
  H       1.906230     39.812456     64.744335
  C       0.300574     38.163092     62.737753
  H       0.002236     38.989110     63.385492
  H       0.142884     38.499191     61.709549
  C      -0.570765     36.944691     63.020030
  H      -1.624732     37.175562     62.854597
  H      -0.297234     36.115687     62.368736
  H      -0.463100     36.611594     64.055418
  C       3.421132     41.230986     64.189959
  H       2.755048     41.917961     63.663915
  H       3.547895     41.602652     65.207997
  H       4.395454     41.277093     63.700351
24
Coordinates from ORCA-job 12 Relaxed Surface Scan Step 10
  C       1.769182     37.917247     62.995038
  H       1.831559     37.581159     64.036895
  C       2.585947     39.242840     62.880636
  H       2.006152     39.977757     62.323095
  O       2.241076     36.912823     62.147083
  H       3.105495     36.638549     62.414981
  C       3.872323     39.004394     62.121615
  O       4.724964     38.257536     62.478202
  O       3.982412     39.719674     61.019250
  H       4.809584     39.510335     60.600445
  C       2.919207     39.813097     64.268126
  H       3.599186     39.115324     64.763018
  H       1.999147     39.834030     64.857587
  C       0.303215     38.137872     62.643919
  H      -0.075876     38.993818     63.205610
  H       0.254754     38.411951     61.586611
  C      -0.575145     36.919475     62.903175
  H      -1.609517     37.121437     62.618826
  H      -0.225281     36.061304     62.331171
  H      -0.569790     36.645551     63.961275
  C       3.532674     41.209451     64.244878
  H       2.866924     41.928151     63.762151
  H       3.724317     41.561875     65.259600
  H       4.484480     41.226169     63.709852
24
Coordinates from ORCA-job 12 Relaxed Surface Scan Step 11
  C       1.744478     37.968051     63.090937
  H       1.683581     37.712670     64.154157
  C       2.559317     39.299964     62.973914
  H       1.936901     40.050296     62.487567
  O       2.338986     36.908681     62.397760
  H       3.171445     36.682307     62.784447
  C       3.756710     39.067003     62.078461
  O       4.765351     38.549991     62.430725
  O       3.573387     39.484705     60.840275
  H       4.340005     39.260541     60.325507
  C       2.995732     39.823545     64.347332
  H       3.673400     39.096489     64.799650
  H       2.109067     39.867742     64.985265
  C       0.330167     38.128363     62.551332
  H      -0.132398     38.986031     63.046887
  H       0.401271     38.379103     61.489478
  C      -0.540742     36.891640     62.736922
  H      -1.543257     37.063443     62.340814
  H      -0.112336     36.033454     62.221292
  H      -0.641760     36.633905     63.794344
  C       3.658267     41.196961     64.315718
  H       2.997370     41.946782     63.874328
  H       3.906501     41.527438     65.325610
  H       4.585547     41.182717     63.740311
24
Coordinates from ORCA-job 12 Relaxed Surface Scan Step 12
  C       1.701622     38.018732     63.176563
  H       1.511991     37.854136     64.241468
  C       2.527135     39.340204     63.046536
  H       1.877358     40.110485     62.631676
  O       2.387007     36.913016     62.660777
  H       3.193026     36.766046     63.132134
  C       3.632778     39.113976     62.037892
  O       4.727885     38.747147     62.306196
  O       3.250399     39.348263     60.795200
  H       3.962533     39.121583     60.208583
  C       3.071530     39.821957     64.396085
  H       3.748064     39.068913     64.805367
  H       2.225934     39.886778     65.085731
  C       0.360054     38.113204     62.463150
  H      -0.177810     38.972056     62.877208
  H       0.543491     38.332308     61.408461
  C      -0.493813     36.857749     62.595435
  H      -1.451009     36.988884     62.087439
  H       0.009227     35.996255     62.159027
  H      -0.703093     36.629624     63.643743
  C       3.777367     41.173344     64.347882
  H       3.116514     41.950836     63.956324
  H       4.089266     41.478735     65.348041
  H       4.669536     41.137591     63.722122
24
Coordinates from ORCA-job 12 Relaxed Surface Scan Step 13
  C       1.652289     38.068962     63.228197
  H       1.345119     37.996703     64.276330
  C       2.497001     39.370985     63.086813
  H       1.836761     40.167753     62.742747
  O       2.393151     36.932492     62.885036
  H       3.169913     36.859795     63.418213
  C       3.535072     39.155734     62.004662
  O       4.661923     38.846130     62.199604
  O       3.053420     39.331965     60.785579
  H       3.733165     39.119820     60.156586
  C       3.137973     39.796412     64.413545
  H       3.831267     39.023160     64.751477
  H       2.341516     39.847551     65.159976
  C       0.392297     38.084673     62.371938
  H      -0.193586     38.963712     62.657196
  H       0.677322     38.218449     61.326990
  C      -0.458659     36.828993     62.524182
  H      -1.360765     36.900265     61.913709
  H       0.093780     35.943305     62.214211
  H      -0.771093     36.684245     63.561630
  C       3.858969     41.140150     64.367114
  H       3.184149     41.938686     64.048238
  H       4.238476     41.405101     65.355393
  H       4.707532     41.116776     63.683674
24
Coordinates from ORCA-job 12 Relaxed Surface Scan Step 14
  C       1.610532     38.108612     63.254323
  H       1.194009     38.132039     64.267849
  C       2.474100     39.391604     63.105263
  H       1.808330     40.212062     62.832182
  O       2.380665     36.953624     63.086436
  H       3.118706     36.946366     63.675600
  C       3.460466     39.206038     61.968798
  O       4.594977     38.894445     62.102228
  O       2.926839     39.420301     60.776397
  H       3.583693     39.239946     60.113955
  C       3.196189     39.752351     64.410335
  H       3.915914     38.969385     64.658966
  H       2.451163     39.761397     65.209402
  C       0.442595     38.030207     62.277934
  H      -0.149699     38.942974     62.381147
  H       0.829019     38.019534     61.258706
  C      -0.445398     36.811969     62.508176
  H      -1.277830     36.804578     61.802098
  H       0.118230     35.888998     62.379670
  H      -0.866681     36.811279     63.516848
  C       3.910443     41.100600     64.385766
  H       3.214138     41.911097     64.155948
  H       4.355785     41.315118     65.358658
  H       4.710806     41.117297     63.646354
24
Coordinates from ORCA-job 12 Relaxed Surface Scan Step 15
  C       1.583034     38.132207     63.276413
  H       1.062473     38.250345     64.235143
  C       2.462455     39.399122     63.118189
  H       1.789541     40.235244     62.916668
  O       2.357216     36.969562     63.291838
  H       3.016577     37.006079     63.965891
  C       3.391384     39.260085     61.927375
  O       4.522689     38.917801     61.985814
  O       2.810198     39.566849     60.776704
  H       3.434968     39.425131     60.075037
  C       3.261570     39.698846     64.393597
  H       4.020043     38.926413     64.535125
  H       2.576874     39.638077     65.243238
  C       0.522825     37.953060     62.195270
  H      -0.027122     38.889720     62.083699
  H       1.016029     37.766153     61.241584
  C      -0.445203     36.815123     62.502391
  H      -1.186370     36.715079     61.707335
  H       0.085033     35.867957     62.593812
  H      -0.984193     36.991683     63.436833
  C       3.940144     41.065830     64.401211
  H       3.210183     41.869806     64.279094
  H       4.458247     41.231230     65.347239
  H       4.678398     41.150418     63.603540
24
Coordinates from ORCA-job 12 Relaxed Surface Scan Step 16
  C       1.552422     38.157996     63.313643
  H       0.929984     38.370273     64.193289
  C       2.446075     39.411379     63.134516
  H       1.770700     40.260545     63.004992
  O       2.309639     37.005387     63.529969
  H       2.811332     37.071245     64.325800
  C       3.299776     39.316670     61.884290
  O       4.408131     38.905365     61.843982
  O       2.676772     39.759657     60.800337
  H       3.252883     39.646930     60.053301
  C       3.330630     39.650445     64.364574
  H       4.106657     38.883915     64.390244
  H       2.715151     39.526347     65.260491
  C       0.624158     37.864861     62.140307
  H       0.142175     38.790431     61.822672
  H       1.227643     37.525443     61.297054
  C      -0.425690     36.808606     62.468299
  H      -1.051008     36.602514     61.597787
  H       0.045975     35.875948     62.775968
  H      -1.083116     37.138658     63.276794
  C       3.987712     41.027139     64.402404
  H       3.240394     41.824125     64.396293
  H       4.587529     41.142274     65.306647
  H       4.651068     41.175668     63.549383
24
Coordinates from ORCA-job 12 Relaxed Surface Scan Step 17
  C       1.500991     38.190414     63.365318
  H       0.775985     38.479257     64.139482
  C       2.406019     39.438128     63.167344
  H       1.736737     40.301609     63.117676
  O       2.221008     37.069836     63.783050
  H       2.561310     37.189364     64.654020
  C       3.173504     39.383378     61.859695
  O       4.221439     38.856993     61.703767
  O       2.548465     40.006021     60.868740
  H       3.067621     39.912685     60.078420
  C       3.384000     39.613525     64.334283
  H       4.133159     38.824097     64.261245
  H       2.837755     39.469606     65.272207
  C       0.736164     37.769056     62.115666
  H       0.340514     38.650091     61.612695
  H       1.453726     37.315795     61.427535
  C      -0.380328     36.772798     62.406900
  H      -0.869556     36.458722     61.483232
  H       0.012793     35.885001     62.901323
  H      -1.144936     37.211390     63.053229
  C       4.073796     40.973836     64.371269
  H       3.348555     41.786610     64.454511
  H       4.747000     41.040499     65.227438
  H       4.671271     41.143110     63.473991
24
Coordinates from ORCA-job 12 Relaxed Surface Scan Step 18
  C       1.425558     38.234941     63.410149
  H       0.594524     38.590047     64.035685
  C       2.357714     39.475468     63.210042
  H       1.716343     40.360093     63.254009
  O       2.067567     37.167719     64.042946
  H       2.233278     37.360146     64.950449
  C       3.033457     39.478435     61.850820
  O       4.007912     38.867727     61.571712
  O       2.420672     40.258677     60.969958
  H       2.883378     40.200493     60.141994
  C       3.432462     39.571527     64.299024
  H       4.127417     38.746041     64.141932
  H       2.960569     39.429156     65.276077
  C       0.854482     37.668486     62.114306
  H       0.552718     38.480852     61.456162
  H       1.668730     37.145456     61.608219
  C      -0.306741     36.707105     62.338758
  H      -0.646477     36.283119     61.392235
  H      -0.007775     35.886054     62.989623
  H      -1.158920     37.213771     62.799010
  C       4.185606     40.898332     64.313545
  H       3.508469     41.740891     64.472379
  H       4.924725     40.910324     65.116204
  H       4.721322     41.066957     63.377803
24
Coordinates from ORCA-job 12 Relaxed Surface Scan Step 19
  C       1.317375     38.329926     63.419891
  H       0.392176     38.765091     63.815765
  C       2.325506     39.532232     63.250876
  H       1.753571     40.448808     63.405241
  O       1.785686     37.355317     64.305736
  H       1.721815     37.649658     65.198441
  C       2.892107     39.617792     61.845807
  O       3.838935     39.027090     61.451810
  O       2.212342     40.449280     61.066244
  H       2.607273     40.443784     60.202019
  C       3.482278     39.499437     64.258652
  H       4.099519     38.628161     64.043261
  H       3.072811     39.362933     65.261480
  C       0.973198     37.596423     62.127069
  H       0.708484     38.322030     61.358514
  H       1.873141     37.084308     61.782162
  C      -0.160641     36.591094     62.294050
  H      -0.360680     36.078695     61.351395
  H       0.092211     35.840689     63.041547
  H      -1.085677     37.083401     62.605506
  C       4.334937     40.765406     64.257081
  H       3.734827     41.652338     64.475491
  H       5.114990     40.698784     65.017336
  H       4.830807     40.919141     63.297663
24
Coordinates from ORCA-job 12 Relaxed Surface Scan Step 20
  C       1.215993     38.451935     63.385822
  H       0.251209     38.945862     63.520019
  C       2.301511     39.594554     63.275413
  H       1.806220     40.530641     63.537202
  O       1.448739     37.619925     64.484620
  H       1.204896     38.049637     65.287509
  C       2.759064     39.784934     61.842962
  O       3.723685     39.305037     61.354160
  O       1.941215     40.570923     61.151801
  H       2.262990     40.633204     60.260035
  C       3.498883     39.402654     64.216533
  H       4.017721     38.476425     63.973796
  H       3.115728     39.275318     65.228428
  C       1.096129     37.557475     62.154396
  H       0.841873     38.187312     61.298042
  H       2.065628     37.101817     61.943971
  C       0.034483     36.473124     62.303951
  H      -0.045523     35.890141     61.384706
  H       0.278762     35.794389     63.118905
  H      -0.948433     36.905907     62.508119
  C       4.479223     40.573160     64.218006
  H       3.978447     41.511193     64.473106
  H       5.262204     40.407671     64.960133
  H       4.966344     40.698581     63.251403
24
Coordinates from ORCA-job 12 Relaxed Surface Scan Step 21
  C       1.153920     38.543433     63.341929
  H       0.194274     39.053818     63.257663
  C       2.277296     39.639326     63.285865
  H       1.836026     40.572844     63.643476
  O       1.181370     37.853797     64.557243
  H       0.859674     38.401050     65.255142
  C       2.648648     39.931573     61.847212
  O       3.626206     39.568710     61.289149
  O       1.719700     40.657634     61.233622
  H       1.983954     40.788541     60.330550
  C       3.495539     39.311674     64.159228
  H       3.936236     38.361314     63.858159
  H       3.134275     39.153537     65.173798
  C       1.218673     37.521877     62.208409
  H       1.042250     38.057108     61.269488
  H       2.221904     37.094075     62.151022
  C       0.185774     36.408175     62.342279
  H       0.230125     35.743150     61.477951
  H       0.359319     35.816464     63.239047
  H      -0.828020     36.812991     62.398069
  C       4.562237     40.403643     64.189098
  H       4.138956     41.361538     64.504818
  H       5.345962     40.143100     64.902724
  H       5.032694     40.542448     63.217097
24
Coordinates from ORCA-job 12 Relaxed Surface Scan Step 22
  C       1.138242     38.583953     63.306046
  H       0.204638     39.095349     63.068039
  C       2.280387     39.648345     63.275805
  H       1.872365     40.563344     63.716165
  O       1.023632     38.014879     64.577732
  H       0.671374     38.643080     65.187676
  C       2.587029     40.025899     61.842340
  O       3.572340     39.762092     61.243843
  O       1.586917     40.699770     61.283906
  H       1.814877     40.890310     60.381603
  C       3.525703     39.236294     64.069260
  H       3.971615     38.340791     63.635937
  H       3.193184     38.947196     65.064345
  C       1.310737     37.462176     62.285177
  H       1.280841     37.909999     61.286575
  H       2.295387     37.004015     62.399472
  C       0.229072     36.391533     62.381597
  H       0.361558     35.643332     61.598077
  H       0.261661     35.887016     63.345601
  H      -0.767549     36.824228     62.262464
  C       4.580241     40.332832     64.197882
  H       4.158828     41.235403     64.649664
  H       5.396360     39.997871     64.840641
  H       5.007551     40.602112     63.233189
24
Coordinates from ORCA-job 12 Relaxed Surface Scan Step 23
  C       1.141986     38.597390     63.281043
  H       0.237610     39.094093     62.923617
  C       2.292523     39.643267     63.250775
  H       1.910146     40.532568     63.762998
  O       0.926786     38.147357     64.587842
  H       0.548571     38.834468     65.112919
  C       2.539556     40.099213     61.828094
  O       3.518623     39.906530     61.192946
  O       1.498947     40.756654     61.328162
  H       1.696487     41.002706     60.432168
  C       3.571009     39.177955     63.955195
  H       4.049126     38.389583     63.374223
  H       3.275397     38.727323     64.901398
  C       1.385111     37.383445     62.390815
  H       1.548486     37.732531     61.366603
  H       2.302865     36.882127     62.703937
  C       0.228469     36.389573     62.407423
  H       0.432341     35.551596     61.738515
  H       0.068312     35.995063     63.409640
  H      -0.701799     36.858841     62.077168
  C       4.575058     40.296859     64.220289
  H       4.133804     41.088432     64.832273
  H       5.441202     39.910814     64.760735
  H       4.936374     40.743431     63.294261
24
Coordinates from ORCA-job 12 Relaxed Surface Scan Step 24
  C       1.138465     38.602614     63.252487
  H       0.274829     39.065290     62.765109
  C       2.290335     39.640986     63.231803
  H       1.928354     40.491375     63.818377
  O       0.810516     38.280332     64.574292
  H       0.387959     39.011689     64.995293
  C       2.481805     40.177256     61.827997
  O       3.405551     39.962056     61.120564
  O       1.462505     40.933454     61.436851
  H       1.622749     41.223193     60.546479
  C       3.597794     39.132534     63.844437
  H       4.077226     38.441372     63.151454
  H       3.343983     38.566552     64.740867
  C       1.456288     37.301989     62.524179
  H       1.828812     37.534695     61.523653
  H       2.267254     36.795191     63.049775
  C       0.254648     36.368033     62.424638
  H       0.523013     35.447923     61.902588
  H      -0.112727     36.102250     63.415152
  H      -0.566283     36.833984     61.873556
  C       4.578344     40.245045     64.205525
  H       4.142750     40.939542     64.928750
  H       5.482684     39.829338     64.653240
  H       4.880135     40.815129     63.325973
