21
Coordinates from ORCA-job 13 Relaxed Surface Scan Step 1
  C      67.876113     -6.846081     -7.029847
  H      67.824080     -7.685474     -6.326236
  C      67.491080     -5.556349     -6.219503
  H      67.401718     -5.876394     -5.184719
  O      69.205107     -6.720937     -7.452954
  H      69.394987     -7.395459     -8.085051
  C      66.084118     -5.076999     -6.524448
  O      65.769649     -4.120799     -7.145488
  O      65.170021     -5.872160     -5.972665
  H      64.308011     -5.538398     -6.191575
  C      68.543096     -4.430086     -6.237342
  H      68.273010     -3.717539     -5.452289
  H      69.481000     -4.880002     -5.916218
  C      66.980973     -7.151947     -8.226288
  H      67.349287     -8.042415     -8.742563
  H      65.956866     -7.357647     -7.921468
  H      66.978363     -6.323226     -8.935828
  C      68.778187     -3.677627     -7.545857
  H      67.895961     -3.125820     -7.860125
  H      69.594079     -2.964012     -7.409777
  H      69.068741     -4.358375     -8.343970
21
Coordinates from ORCA-job 13 Relaxed Surface Scan Step 2
  C      67.841013     -6.849281     -6.992960
  H      67.649303     -7.703431     -6.332418
  C      67.494051     -5.553553     -6.183724
  H      67.446964     -5.854721     -5.138964
  O      69.213118     -6.825928     -7.274154
  H      69.400687     -7.451138     -7.955490
  C      66.072339     -5.081920     -6.416572
  O      65.729111     -4.044947     -6.869717
  O      65.185204     -5.979859     -5.993078
  H      64.312173     -5.637552     -6.144533
  C      68.539503     -4.427524     -6.274624
  H      68.287952     -3.676961     -5.521171
  H      69.486859     -4.858166     -5.956834
  C      67.051455     -7.032280     -8.285983
  H      67.404981     -7.925149     -8.808784
  H      65.990116     -7.173295     -8.094254
  H      67.178671     -6.177096     -8.951201
  C      68.736426     -3.749633     -7.628648
  H      67.824357     -3.271457     -7.979222
  H      69.506858     -2.980239     -7.542676
  H      69.073307     -4.463617     -8.379208
21
Coordinates from ORCA-job 13 Relaxed Surface Scan Step 3
  C      67.812889     -6.846923     -6.984124
  H      67.513632     -7.703402     -6.369320
  C      67.500760     -5.556442     -6.163802
  H      67.504309     -5.855878     -5.115604
  O      69.201091     -6.902769     -7.161432
  H      69.405742     -7.546737     -7.819982
  C      66.069092     -5.094345     -6.339778
  O      65.707639     -4.029856     -6.706799
  O      65.200882     -6.035221     -5.975805
  H      64.321021     -5.694234     -6.084564
  C      68.532043     -4.423888     -6.304580
  H      68.278144     -3.649963     -5.577532
  H      69.488254     -4.832063     -5.983695
  C      67.104914     -6.942706     -8.333087
  H      67.430689     -7.847002     -8.854420
  H      66.025567     -7.015122     -8.214984
  H      67.332130     -6.086220     -8.967633
  C      68.705028     -3.790531     -7.682793
  H      67.770300     -3.380852     -8.061803
  H      69.425764     -2.972443     -7.621325
  H      69.094558     -4.511151     -8.401154
21
Coordinates from ORCA-job 13 Relaxed Surface Scan Step 4
  C      67.789190     -6.843283     -6.988999
  H      67.397646     -7.690212     -6.415951
  C      67.510675     -5.560475     -6.156272
  H      67.569953     -5.867649     -5.110009
  O      69.180532     -6.970286     -7.081044
  H      69.394155     -7.674831     -7.671277
  C      66.071260     -5.106624     -6.275661
  O      65.696282     -4.024925     -6.572365
  O      65.217394     -6.075374     -5.955495
  H      64.333195     -5.735442     -6.025245
  C      68.523747     -4.417105     -6.332234
  H      68.256917     -3.631240     -5.623923
  H      69.489178     -4.801667     -6.008898
  C      67.151669     -6.876915     -8.375779
  H      67.439291     -7.799826     -8.886832
  H      66.064507     -6.874140     -8.313937
  H      67.469836     -6.037891     -8.992131
  C      68.677508     -3.806760     -7.722877
  H      67.726268     -3.455072     -8.120368
  H      69.351331     -2.949088     -7.672358
  H      69.113912     -4.518940     -8.422561
21
Coordinates from ORCA-job 13 Relaxed Surface Scan Step 5
  C      67.768599     -6.842364     -7.000892
  H      67.289972     -7.666935     -6.464786
  C      67.524444     -5.565251     -6.158874
  H      67.641746     -5.885369     -5.119730
  O      69.153755     -7.044522     -7.014475
  H      69.357590     -7.825280     -7.503818
  C      66.079218     -5.117977     -6.219308
  O      65.694400     -4.023083     -6.447714
  O      65.235645     -6.107023     -5.938292
  H      64.349404     -5.766597     -5.968192
  C      68.516766     -4.408291     -6.360074
  H      68.235685     -3.622436     -5.657611
  H      69.493300     -4.771045     -6.043557
  C      67.200691     -6.830485     -8.417845
  H      67.432566     -7.779546     -8.908724
  H      66.115288     -6.734265     -8.408962
  H      67.618186     -6.029763     -9.023631
  C      68.644808     -3.799896     -7.754248
  H      67.679107     -3.495359     -8.156798
  H      69.275880     -2.910302     -7.706066
  H      69.117398     -4.491958     -8.450619
21
Coordinates from ORCA-job 13 Relaxed Surface Scan Step 6
  C      67.750093     -6.849503     -7.013858
  H      67.179542     -7.635789     -6.514289
  C      67.543009     -5.572139     -6.170285
  H      67.718214     -5.904751     -5.142127
  O      69.117265     -7.143427     -6.942123
  H      69.282960     -7.998705     -7.305303
  C      66.095299     -5.126033     -6.166792
  O      65.709059     -4.017307     -6.311949
  O      65.253726     -6.128959     -5.935523
  H      64.369365     -5.782762     -5.919164
  C      68.514896     -4.402241     -6.393913
  H      68.235550     -3.630424     -5.674970
  H      69.506631     -4.752012     -6.109974
  C      67.267193     -6.801318     -8.460576
  H      67.416251     -7.780510     -8.923140
  H      66.200815     -6.580277     -8.516475
  H      67.808228     -6.068075     -9.052290
  C      68.590072     -3.767991     -7.780966
  H      67.604511     -3.504818     -8.164584
  H      69.176681     -2.848870     -7.727654
  H      69.085089     -4.421837     -8.498260
21
Coordinates from ORCA-job 13 Relaxed Surface Scan Step 7
  C      67.732706     -6.875478     -7.016894
  H      67.047034     -7.596124     -6.569769
  C      67.568814     -5.584243     -6.191476
  H      67.804968     -5.917633     -5.175151
  O      69.055422     -7.295897     -6.818141
  H      69.144036     -8.206969     -7.048711
  C      66.126606     -5.121592     -6.105196
  O      65.769159     -3.993881     -6.073029
  O      65.257858     -6.122740     -6.013367
  H      64.386655     -5.755262     -5.922396
  C      68.525703     -4.409431     -6.453616
  H      68.311971     -3.675650     -5.674510
  H      69.538846     -4.771761     -6.279942
  C      67.393663     -6.802024     -8.501511
  H      67.421995     -7.807393     -8.929148
  H      66.389127     -6.408746     -8.664261
  H      68.104709     -6.190106     -9.049457
  C      68.464508     -3.695785     -7.803813
  H      67.443897     -3.431976     -8.080295
  H      69.035748     -2.767327     -7.746713
  H      68.901024     -4.287730     -8.606818
21
Coordinates from ORCA-job 13 Relaxed Surface Scan Step 8
  C      67.725595     -6.897098     -7.035276
  H      66.953012     -7.561681     -6.652466
  C      67.592654     -5.598509     -6.215545
  H      67.885437     -5.932752     -5.214876
  O      68.992499     -7.428682     -6.738164
  H      68.951867     -8.371204     -6.711089
  C      66.159152     -5.125251     -6.049143
  O      65.835511     -4.004081     -5.850455
  O      65.260130     -6.102115     -6.088902
  H      64.402964     -5.723816     -5.931994
  C      68.532046     -4.417932     -6.518359
  H      68.401575     -3.721035     -5.688164
  H      69.554960     -4.792888     -6.465099
  C      67.528488     -6.797833     -8.542116
  H      67.479064     -7.802498     -8.967683
  H      66.599844     -6.283935     -8.795962
  H      68.360544     -6.282136     -9.015041
  C      68.332900     -3.633536     -7.815727
  H      67.300828     -3.304288     -7.934085
  H      68.957044     -2.738159     -7.792995
  H      68.618332     -4.198318     -8.701073
21
Coordinates from ORCA-job 13 Relaxed Surface Scan Step 9
  C      67.728437     -6.990163     -7.052743
  H      66.875976     -7.605306     -6.749109
  C      67.666678     -5.694129     -6.209482
  H      68.068001     -5.986650     -5.238302
  O      68.921520     -7.667794     -6.756169
  H      68.886991     -8.016092     -5.878551
  C      66.268386     -5.200452     -5.901871
  O      65.991922     -4.551674     -4.950927
  O      65.358484     -5.531733     -6.808170
  H      64.520765     -5.169423     -6.543456
  C      68.547192     -4.501458     -6.649226
  H      68.681056     -3.877739     -5.763052
  H      69.530263     -4.897827     -6.909135
  C      67.675315     -6.851804     -8.563081
  H      67.668486     -7.848450     -9.004489
  H      66.782194     -6.320781     -8.884879
  H      68.559112     -6.334508     -8.935119
  C      68.019547     -3.604471     -7.769219
  H      67.068553     -3.141794     -7.497317
  H      68.727930     -2.794022     -7.949769
  H      67.877641     -4.131477     -8.710148
21
Coordinates from ORCA-job 13 Relaxed Surface Scan Step 10
  C      67.711862     -6.992746     -7.063764
  H      66.795079     -7.536758     -6.820528
  C      67.700502     -5.692250     -6.217719
  H      68.176054     -5.983634     -5.282646
  O      68.820015     -7.770922     -6.692815
  H      68.683692     -8.127397     -5.827491
  C      66.313334     -5.225968     -5.832017
  O      66.049458     -4.685246     -4.812565
  O      65.394367     -5.444381     -6.764686
  H      64.561778     -5.105022     -6.457175
  C      68.526368     -4.469780     -6.684078
  H      68.628312     -3.834464     -5.800248
  H      69.527883     -4.821792     -6.938817
  C      67.758829     -6.849049     -8.572761
  H      67.736702     -7.843318     -9.018657
  H      66.906534     -6.281945     -8.941969
  H      68.681322     -6.364206     -8.891611
  C      67.965688     -3.602953     -7.811684
  H      66.983335     -3.198790     -7.560350
  H      68.629525     -2.752461     -7.976791
  H      67.873808     -4.134665     -8.755844
21
Coordinates from ORCA-job 13 Relaxed Surface Scan Step 11
  C      67.683328     -6.992520     -7.091594
  H      66.696200     -7.439333     -6.955534
  C      67.727996     -5.691180     -6.236193
  H      68.274121     -5.983330     -5.342185
  O      68.654748     -7.888867     -6.616583
  H      68.401008     -8.205899     -5.762109
  C      66.364373     -5.246054     -5.753983
  O      66.145228     -4.791550     -4.683116
  O      65.408787     -5.373817     -6.667323
  H      64.592876     -5.051628     -6.302242
  C      68.501564     -4.446183     -6.736615
  H      68.615828     -3.809782     -5.854472
  H      69.505222     -4.766332     -7.022682
  C      67.900002     -6.854913     -8.586110
  H      67.883182     -7.849340     -9.031321
  H      67.112370     -6.258203     -9.042662
  H      68.867308     -6.405380     -8.810636
  C      67.885421     -3.593399     -7.845520
  H      66.897980     -3.220334     -7.569727
  H      68.520509     -2.724029     -8.024937
  H      67.786396     -4.125674     -8.788672
21
Coordinates from ORCA-job 13 Relaxed Surface Scan Step 12
  C      67.645333     -6.967445     -7.173761
  H      66.587860     -7.190610     -7.323068
  C      67.757532     -5.683369     -6.287494
  H      68.357960     -5.967910     -5.426154
  O      68.259471     -8.049755     -6.520796
  H      67.801292     -8.268995     -5.726540
  C      66.442536     -5.249537     -5.668999
  O      66.336049     -4.823498     -4.569205
  O      65.396739     -5.348619     -6.480340
  H      64.628303     -5.024434     -6.025155
  C      68.460054     -4.440052     -6.893630
  H      68.826645     -3.839728     -6.059853
  H      69.350900     -4.780488     -7.419222
  C      68.296838     -6.909813     -8.544960
  H      68.128900     -7.863562     -9.044092
  H      67.880926     -6.119538     -9.166374
  H      69.373901     -6.767701     -8.460369
  C      67.629304     -3.539600     -7.807787
  H      66.826053     -3.043479     -7.261024
  H      68.263607     -2.757985     -8.229278
  H      67.174248     -4.081630     -8.636111
21
Coordinates from ORCA-job 13 Relaxed Surface Scan Step 13
  C      67.529977     -6.738919     -7.294788
  H      66.621184     -6.489489     -7.848187
  C      67.867758     -5.586117     -6.345711
  H      68.666043     -5.934717     -5.691182
  O      67.279944     -7.840730     -6.462507
  H      66.989669     -8.575421     -6.979321
  C      66.729927     -5.286764     -5.387548
  O      66.887168     -4.954240     -4.262776
  O      65.521915     -5.371600     -5.928558
  H      64.880091     -5.165069     -5.259632
  C      68.356841     -4.285919     -7.018503
  H      68.646974     -3.593660     -6.226687
  H      69.278387     -4.511570     -7.556887
  C      68.645459     -7.066977     -8.278588
  H      68.387777     -7.968566     -8.839531
  H      68.804922     -6.269395     -9.003532
  H      69.582259     -7.257117     -7.751706
  C      67.373853     -3.594959     -7.961801
  H      66.454173     -3.306960     -7.451972
  H      67.823913     -2.688670     -8.370605
  H      67.096215     -4.230888     -8.804191
21
Coordinates from ORCA-job 13 Relaxed Surface Scan Step 14
  C      67.550715     -6.718481     -7.323907
  H      66.683051     -6.428673     -7.919892
  C      67.907513     -5.578731     -6.366954
  H      68.748671     -5.919000     -5.762702
  O      67.211877     -7.803244     -6.498061
  H      66.645945     -8.403859     -6.954602
  C      66.799769     -5.341623     -5.358727
  O      66.982563     -5.099942     -4.215253
  O      65.578978     -5.365797     -5.880860
  H      64.953934     -5.202621     -5.184659
  C      68.327781     -4.244932     -7.020252
  H      68.533168     -3.541829     -6.209891
  H      69.283254     -4.400867     -7.524386
  C      68.689613     -7.101402     -8.258697
  H      68.405335     -7.975691     -8.847829
  H      68.936157     -6.299610     -8.955167
  H      69.583485     -7.358745     -7.688097
  C      67.337813     -3.611931     -7.996690
  H      66.373398     -3.414571     -7.529038
  H      67.732866     -2.661905     -8.360648
  H      67.158563     -4.244293     -8.867902
21
Coordinates from ORCA-job 13 Relaxed Surface Scan Step 15
  C      67.525890     -6.741509     -7.405128
  H      66.643375     -6.468813     -7.992750
  C      67.828649     -5.611270     -6.398189
  H      68.578944     -6.015113     -5.711536
  O      67.290446     -7.945407     -6.732349
  H      66.467483     -7.896166     -6.274186
  C      66.661588     -5.265127     -5.484104
  O      66.656223     -4.356045     -4.728053
  O      65.614862     -6.083579     -5.577820
  H      64.951297     -5.794946     -4.961403
  C      68.401985     -4.311697     -6.994305
  H      68.637785     -3.645647     -6.165893
  H      69.351147     -4.541972     -7.478071
  C      68.677863     -7.011522     -8.359443
  H      68.435920     -7.890199     -8.956089
  H      68.862796     -6.177694     -9.034684
  H      69.593789     -7.224505     -7.804979
  C      67.485805     -3.583694     -7.976203
  H      66.539145     -3.304399     -7.509139
  H      67.958920     -2.663057     -8.321392
  H      67.260536     -4.185388     -8.858499
21
Coordinates from ORCA-job 13 Relaxed Surface Scan Step 16
  C      67.576192     -6.728712     -7.436210
  H      66.793889     -6.384593     -8.115941
  C      67.924159     -5.614509     -6.432639
  H      68.775742     -5.966885     -5.847723
  O      67.126280     -7.864351     -6.749314
  H      66.239668     -7.717412     -6.458151
  C      66.835184     -5.372784     -5.403852
  O      67.021798     -4.902692     -4.335801
  O      65.607428     -5.693983     -5.813703
  H      64.993140     -5.474879     -5.122131
  C      68.326605     -4.250720     -7.036459
  H      68.542107     -3.585832     -6.197959
  H      69.266147     -4.373903     -7.576999
  C      68.776613     -7.153372     -8.264510
  H      68.490069     -7.977799     -8.916763
  H      69.151336     -6.338872     -8.884350
  H      69.583694     -7.500619     -7.617161
  C      67.295514     -3.589700     -7.949940
  H      66.334536     -3.453429     -7.450390
  H      67.647557     -2.603715     -8.257333
  H      67.116790     -4.168985     -8.856885
21
Coordinates from ORCA-job 13 Relaxed Surface Scan Step 17
  C      67.600354     -6.704361     -7.499517
  H      66.955869     -6.301917     -8.282182
  C      67.971949     -5.599470     -6.483993
  H      68.891311     -5.910495     -5.985192
  O      66.935628     -7.757473     -6.858565
  H      66.061526     -7.471568     -6.636341
  C      66.961663     -5.459335     -5.363279
  O      67.235132     -5.253539     -4.232878
  O      65.690167     -5.527659     -5.766971
  H      65.127505     -5.384616     -5.014135
  C      68.246522     -4.190297     -7.062258
  H      68.399221     -3.532462     -6.202139
  H      69.196776     -4.217241     -7.599205
  C      68.835786     -7.281588     -8.167127
  H      68.543322     -8.035909     -8.897319
  H      69.409565     -6.507948     -8.679465
  H      69.476982     -7.758714     -7.424527
  C      67.174157     -3.582319     -7.965478
  H      66.198184     -3.553986     -7.480663
  H      67.448581     -2.557334     -8.220581
  H      67.064247     -4.129514     -8.902398
21
Coordinates from ORCA-job 13 Relaxed Surface Scan Step 18
  C      67.702242     -6.651837     -7.629470
  H      67.390954     -6.177356     -8.562073
  C      68.028342     -5.549090     -6.574279
  H      69.001332     -5.778424     -6.141653
  O      66.697668     -7.525754     -7.202666
  H      65.882698     -7.054414     -7.116217
  C      67.098971     -5.575555     -5.378039
  O      67.450204     -5.697531     -4.256792
  O      65.812099     -5.398844     -5.684784
  H      65.307011     -5.414862     -4.879631
  C      68.149243     -4.118674     -7.149750
  H      68.427764     -3.459755     -6.322820
  H      69.002361     -4.121225     -7.833299
  C      68.927980     -7.494600     -7.931900
  H      68.694780     -8.227230     -8.704488
  H      69.754601     -6.872266     -8.279316
  H      69.246039     -8.030265     -7.036238
  C      66.940752     -3.518064     -7.867357
  H      66.089787     -3.392168     -7.200791
  H      67.205673     -2.534772     -8.260080
  H      66.613947     -4.125062     -8.712575
21
Coordinates from ORCA-job 13 Relaxed Surface Scan Step 19
  C      67.821336     -6.558407     -7.719330
  H      67.838891     -6.056949     -8.692386
  C      68.093977     -5.468198     -6.634015
  H      69.102214     -5.625183     -6.260094
  O      66.596949     -7.213161     -7.552139
  H      65.876478     -6.604474     -7.569309
  C      67.243236     -5.708903     -5.403427
  O      67.641952     -6.207248     -4.408161
  O      65.979206     -5.312222     -5.523185
  H      65.520166     -5.532068     -4.720531
  C      68.060705     -4.030756     -7.195846
  H      68.376240     -3.335635     -6.412982
  H      68.853184     -3.990235     -7.948286
  C      68.888414     -7.637707     -7.710004
  H      68.661707     -8.387333     -8.468014
  H      69.872197     -7.214515     -7.918728
  H      68.919127     -8.129969     -6.736999
  C      66.764891     -3.529910     -7.832221
  H      65.967387     -3.412123     -7.102604
  H      66.938492     -2.559653     -8.300968
  H      66.407701     -4.203100     -8.614987
21
Coordinates from ORCA-job 13 Relaxed Surface Scan Step 20
  C      67.887477     -6.507793     -7.753585
  H      68.087938     -6.035225     -8.722161
  C      68.143661     -5.426406     -6.665997
  H      69.178016     -5.533646     -6.347230
  O      66.575835     -6.995739     -7.725105
  H      65.944974     -6.300502     -7.812734
  C      67.360913     -5.773532     -5.415340
  O      67.775310     -6.466650     -4.550546
  O      66.145891     -5.242580     -5.359319
  H      65.725128     -5.544316     -4.562368
  C      67.990633     -3.982356     -7.186777
  H      68.196094     -3.284697     -6.370706
  H      68.805352     -3.835747     -7.901009
  C      68.799554     -7.711734     -7.600980
  H      68.554483     -8.452839     -8.361697
  H      69.844954     -7.422799     -7.718382
  H      68.671737     -8.167659     -6.619430
  C      66.681260     -3.593450     -7.872623
  H      65.830758     -3.646794     -7.196596
  H      66.750687     -2.568611     -8.241360
  H      66.473792     -4.224672     -8.740270
21
Coordinates from ORCA-job 13 Relaxed Surface Scan Step 21
  C      67.927669     -6.488382     -7.770501
  H      68.252505     -6.072264     -8.730326
  C      68.186729     -5.403758     -6.693332
  H      69.244807     -5.458864     -6.435645
  O      66.573377     -6.837286     -7.833941
  H      66.043781     -6.094074     -8.071794
  C      67.470236     -5.791494     -5.413587
  O      67.895132     -6.566818     -4.626306
  O      66.305790     -5.184454     -5.233298
  H      65.921570     -5.508314     -4.426920
  C      67.925770     -3.957147     -7.164147
  H      67.991301     -3.299505     -6.294778
  H      68.762535     -3.682706     -7.811467
  C      68.705950     -7.770870     -7.533292
  H      68.470337     -8.483224     -8.324021
  H      69.779774     -7.579553     -7.544953
  H      68.443782     -8.216301     -6.575486
  C      66.626810     -3.653526     -7.910741
  H      65.746260     -3.891279     -7.315809
  H      66.582744     -2.590116     -8.151488
  H      66.567591     -4.187812     -8.862383
21
Coordinates from ORCA-job 13 Relaxed Surface Scan Step 22
  C      67.957398     -6.487095     -7.792368
  H      68.407206     -6.157245     -8.732125
  C      68.225434     -5.382516     -6.737774
  H      69.303175     -5.380501     -6.557022
  O      66.589497     -6.713764     -7.972047
  H      66.175922     -5.952031     -8.344576
  C      67.601790     -5.782080     -5.413474
  O      68.123261     -6.485120     -4.615834
  O      66.397287     -5.269838     -5.207835
  H      66.072547     -5.589838     -4.374479
  C      67.868905     -3.935385     -7.152921
  H      67.847609     -3.340994     -6.237334
  H      68.701337     -3.554326     -7.748975
  C      68.593818     -7.824644     -7.449931
  H      68.406524     -8.521956     -8.266560
  H      69.671240     -7.722549     -7.316972
  H      68.174499     -8.244221     -6.537915
  C      66.572544     -3.663213     -7.915647
  H      65.697012     -4.028347     -7.380654
  H      66.450790     -2.587179     -8.049655
  H      66.586651     -4.094907     -8.920116
21
Coordinates from ORCA-job 13 Relaxed Surface Scan Step 23
  C      68.024502     -6.493118     -7.842858
  H      68.682764     -6.299267     -8.691670
  C      68.273180     -5.357457     -6.817029
  H      69.357997     -5.303677     -6.693999
  O      66.703570     -6.577410     -8.285700
  H      66.503445     -5.855064     -8.857559
  C      67.755752     -5.725053     -5.440660
  O      68.443303     -6.068936     -4.539414
  O      66.441365     -5.621685     -5.314196
  H      66.202763     -5.873220     -4.429726
  C      67.846318     -3.917489     -7.200746
  H      67.938904     -3.329366     -6.284083
  H      68.600254     -3.521880     -7.885809
  C      68.401334     -7.863995     -7.301753
  H      68.338304     -8.596247     -8.106316
  H      69.412740     -7.869265     -6.895718
  H      67.710951     -8.174173     -6.517001
  C      66.460196     -3.639722     -7.787766
  H      65.668495     -4.144945     -7.240086
  H      66.268072     -2.565982     -7.750772
  H      66.390240     -3.919798     -8.841352
21
Coordinates from ORCA-job 13 Relaxed Surface Scan Step 24
  C      68.208334     -6.475397     -7.890945
  H      69.140098     -6.452840     -8.455809
  C      68.334569     -5.318625     -6.851143
  H      69.407543     -5.177628     -6.693303
  O      67.145448     -6.332790     -8.788307
  H      67.354376     -5.674034     -9.432560
  C      67.802395     -5.631059     -5.465815
  O      68.444869     -5.545048     -4.474306
  O      66.527015     -5.990120     -5.439348
  H      66.277590     -6.154369     -4.537412
  C      67.814285     -3.939752     -7.326306
  H      68.222344     -3.201191     -6.633765
  H      68.281998     -3.729752     -8.293345
  C      68.115110     -7.865371     -7.281646
  H      68.224973     -8.610492     -8.069130
  H      68.903992     -8.023703     -6.543746
  H      67.148628     -8.015229     -6.805810
  C      66.304979     -3.702087     -7.419913
  H      65.841034     -3.694345     -6.434817
  H      66.125105     -2.724988     -7.873583
  H      65.799762     -4.458929     -8.013207
