27
Coordinates from ORCA-job 2 Relaxed Surface Scan Step 1
  C      67.864116     -6.743718     -7.195465
  H      68.920640     -6.785031     -6.917592
  C      67.271815     -5.475662     -6.536202
  H      66.828391     -5.803046     -5.590555
  O      67.748118     -6.599824     -8.585369
  H      68.097948     -7.357427     -9.026600
  C      66.108524     -4.929594     -7.342714
  O      66.043013     -3.845214     -7.810112
  O      65.102371     -5.789620     -7.433470
  H      64.422438     -5.398743     -7.968871
  C      68.271281     -4.374846     -6.131824
  H      67.673419     -3.607230     -5.637345
  H      68.917822     -4.811034     -5.363717
  C      67.208050     -8.036864     -6.727029
  H      67.670717     -8.893802     -7.224427
  H      67.342696     -8.171296     -5.652345
  H      66.143434     -8.040365     -6.951823
  C      69.149170     -3.623276     -7.142685
  H      69.732747     -2.921480     -6.532093
  H      68.511588     -3.021140     -7.790348
  C      70.125278     -4.419765     -8.008358
  H      70.732007     -5.081974     -7.383479
  H      69.570272     -5.059251     -8.691755
  C      71.051933     -3.512008     -8.812893
  H      71.731835     -4.094487     -9.438474
  H      70.481063     -2.851842     -9.470252
  H      71.660623     -2.881616     -8.159742
27
Coordinates from ORCA-job 2 Relaxed Surface Scan Step 2
  C      67.887888     -6.785368     -7.134747
  H      68.932499     -6.821283     -6.813789
  C      67.279752     -5.481400     -6.559691
  H      66.755999     -5.772258     -5.643398
  O      67.827030     -6.717914     -8.533183
  H      68.210440     -7.489551     -8.918463
  C      66.203223     -4.931477     -7.473749
  O      66.227604     -3.876956     -8.008809
  O      65.164613     -5.749030     -7.585540
  H      64.544902     -5.365005     -8.193997
  C      68.274469     -4.400632     -6.094537
  H      67.665045     -3.636622     -5.608455
  H      68.874726     -4.868068     -5.308168
  C      67.194769     -8.043598     -6.626559
  H      67.659081     -8.932110     -7.063120
  H      67.285471     -8.125718     -5.542006
  H      66.139124     -8.039958     -6.892628
  C      69.211090     -3.624916     -7.036676
  H      69.920202     -3.122706     -6.364266
  H      68.635853     -2.842416     -7.531495
  C      70.001763     -4.374596     -8.107284
  H      70.571397     -5.196338     -7.665362
  H      69.312051     -4.829004     -8.815739
  C      70.964094     -3.455191     -8.854524
  H      71.507940     -3.998609     -9.630218
  H      70.428149     -2.635791     -9.339309
  H      71.702137     -3.013640     -8.179830
27
Coordinates from ORCA-job 2 Relaxed Surface Scan Step 3
  C      67.914182     -6.814229     -7.062269
  H      68.936025     -6.849045     -6.672849
  C      67.287504     -5.485466     -6.568616
  H      66.700130     -5.742457     -5.680804
  O      67.944033     -6.794488     -8.462127
  H      68.355790     -7.575515     -8.795458
  C      66.284945     -4.943187     -7.566165
  O      66.366406     -3.902092     -8.122110
  O      65.242037     -5.745647     -7.729885
  H      64.671593     -5.366512     -8.387610
  C      68.266205     -4.408360     -6.065860
  H      67.638534     -3.631960     -5.626228
  H      68.807037     -4.873932     -5.237581
  C      67.173745     -8.046717     -6.557733
  H      67.652158     -8.954645     -6.934984
  H      67.193864     -8.093780     -5.467478
  H      66.137265     -8.039339     -6.891153
  C      69.277932     -3.655969     -6.958705
  H      70.095433     -3.373084     -6.282406
  H      68.811343     -2.727129     -7.288212
  C      69.871231     -4.320722     -8.199655
  H      70.358650     -5.264930     -7.950697
  H      69.071667     -4.569384     -8.894219
  C      70.884303     -3.414658     -8.894259
  H      71.288988     -3.890373     -9.790152
  H      70.425154     -2.471658     -9.200363
  H      71.725154     -3.174878     -8.237961
27
Coordinates from ORCA-job 2 Relaxed Surface Scan Step 4
  C      67.934500     -6.815745     -7.021395
  H      68.944722     -6.828623     -6.600062
  C      67.281741     -5.479152     -6.586893
  H      66.649280     -5.717393     -5.725862
  O      68.007940     -6.836862     -8.419364
  H      68.428978     -7.627369     -8.716672
  C      66.317084     -4.958454     -7.632759
  O      66.397934     -3.912856     -8.180564
  O      65.300004     -5.782710     -7.842355
  H      64.749452     -5.414114     -8.522556
  C      68.231634     -4.388504     -6.059125
  H      67.581566     -3.584457     -5.713873
  H      68.683159     -4.814491     -5.159919
  C      67.189729     -8.039547     -6.502707
  H      67.687094     -8.954152     -6.836867
  H      67.175721     -8.053295     -5.411421
  H      66.164241     -8.051520     -6.868789
  C      69.354040     -3.717383     -6.896416
  H      70.240742     -3.688910     -6.252995
  H      69.065013     -2.676874     -7.052801
  C      69.768603     -4.269772     -8.260624
  H      70.153757     -5.285405     -8.174795
  H      68.900691     -4.329770     -8.913652
  C      70.835869     -3.395980     -8.914560
  H      71.128606     -3.796173     -9.887582
  H      70.472373     -2.377770     -9.072718
  H      71.736837     -3.332876     -8.298211
27
Coordinates from ORCA-job 2 Relaxed Surface Scan Step 5
  C      67.979611     -6.817630     -6.960157
  H      68.971476     -6.775474     -6.498417
  C      67.280953     -5.468980     -6.643166
  H      66.566948     -5.682781     -5.846215
  O      68.119817     -6.944589     -8.347992
  H      68.535203     -7.764542     -8.562375
  C      66.357238     -5.000626     -7.751140
  O      66.356993     -3.928344     -8.250526
  O      65.438017     -5.908476     -8.050222
  H      64.890039     -5.563779     -8.744633
  C      68.189214     -4.360598     -6.070941
  H      67.535243     -3.536673     -5.782853
  H      68.562986     -4.754207     -5.121965
  C      67.240313     -8.018568     -6.383737
  H      67.773354     -8.943108     -6.621923
  H      67.173609     -7.949325     -5.296544
  H      66.234332     -8.084449     -6.795860
  C      69.408993     -3.792602     -6.849157
  H      70.327482     -4.160017     -6.384772
  H      69.423452     -2.714027     -6.672734
  C      69.537006     -4.032978     -8.354224
  H      69.524719     -5.103906     -8.557473
  H      68.678492     -3.610704     -8.872633
  C      70.818795     -3.422868     -8.915334
  H      70.898633     -3.599201     -9.990129
  H      70.849818     -2.341789     -8.756247
  H      71.708575     -3.849913     -8.444172
27
Coordinates from ORCA-job 2 Relaxed Surface Scan Step 6
  C      67.984096     -6.863604     -6.541303
  H      68.551822     -6.942697     -5.606601
  C      67.347918     -5.465453     -6.491775
  H      66.578833     -5.518491     -5.717527
  O      68.869550     -6.934249     -7.621446
  H      69.273478     -7.786496     -7.655574
  C      66.513903     -5.009913     -7.680961
  O      66.022114     -3.933213     -7.737919
  O      66.303071     -5.913712     -8.622123
  H      65.745651     -5.523085     -9.284944
  C      68.323953     -4.357703     -6.024157
  H      67.737061     -3.463951     -5.812205
  H      68.718144     -4.676122     -5.055834
  C      66.990963     -8.021645     -6.554946
  H      67.531386     -8.969671     -6.484042
  H      66.319098     -7.968510     -5.696218
  H      66.400258     -8.033879     -7.467168
  C      69.518167     -3.988178     -6.922813
  H      70.310318     -4.731108     -6.823718
  H      69.936071     -3.058394     -6.523444
  C      69.230442     -3.807688     -8.412662
  H      68.842244     -4.750353     -8.806881
  H      68.457431     -3.049675     -8.555712
  C      70.476290     -3.416430     -9.202123
  H      70.249553     -3.298900    -10.263842
  H      70.893189     -2.470464     -8.846915
  H      71.256304     -4.176570     -9.112687
27
Coordinates from ORCA-job 2 Relaxed Surface Scan Step 7
  C      68.000342     -6.809147     -6.705591
  H      68.804607     -6.774905     -5.962707
  C      67.262848     -5.460266     -6.583399
  H      66.522776     -5.583681     -5.787532
  O      68.556809     -6.880169     -7.988562
  H      69.011453     -7.698910     -8.106578
  C      66.386848     -5.107451     -7.773448
  O      66.271533     -4.025412     -8.237337
  O      65.650213     -6.122670     -8.203259
  H      65.111207     -5.814009     -8.921664
  C      68.179617     -4.299502     -6.142940
  H      67.587497     -3.384418     -6.108277
  H      68.457840     -4.508552     -5.106056
  C      67.157523     -8.040557     -6.394522
  H      67.782082     -8.936747     -6.449360
  H      66.756349     -7.987383     -5.380795
  H      66.333636     -8.150822     -7.094282
  C      69.482410     -4.036175     -6.913593
  H      70.163283     -4.883049     -6.795241
  H      69.973621     -3.198786     -6.406751
  C      69.368376     -3.708779     -8.401516
  H      68.925577     -4.558191     -8.922164
  H      68.687211     -2.867996     -8.542597
  C      70.722528     -3.385847     -9.026358
  H      70.621451     -3.161572    -10.090318
  H      71.188122     -2.519043     -8.549506
  H      71.415551     -4.226112     -8.931185
27
Coordinates from ORCA-job 2 Relaxed Surface Scan Step 8
  C      67.983224     -6.816012     -6.702547
  H      68.819372     -6.750040     -5.998297
  C      67.227649     -5.476882     -6.591288
  H      66.527190     -5.579088     -5.756463
  O      68.477686     -6.903428     -8.010658
  H      68.954238     -7.709133     -8.132497
  C      66.332259     -5.202282     -7.786861
  O      66.310615     -4.199627     -8.413511
  O      65.481522     -6.189804     -8.035304
  H      64.952618     -5.944234     -8.784872
  C      68.137863     -4.281308     -6.241960
  H      67.548324     -3.369275     -6.341480
  H      68.367988     -4.382988     -5.177971
  C      67.177639     -8.053630     -6.326596
  H      67.816571     -8.939330     -6.385653
  H      66.817008     -7.981606     -5.298997
  H      66.327494     -8.195887     -6.988123
  C      69.475885     -4.104882     -6.974886
  H      70.034967     -5.043276     -6.957046
  H      70.061489     -3.398805     -6.376956
  C      69.428225     -3.581935     -8.409823
  H      68.909700     -4.293261     -9.049186
  H      68.839345     -2.662065     -8.441638
  C      70.821125     -3.318595     -8.974427
  H      70.766348     -2.946098     -9.999448
  H      71.361592     -2.575706     -8.381545
  H      71.423372     -4.230977     -8.987508
27
Coordinates from ORCA-job 2 Relaxed Surface Scan Step 9
  C      67.954107     -6.872850     -6.650493
  H      68.806691     -6.765572     -5.971465
  C      67.219981     -5.514984     -6.640658
  H      66.497621     -5.553747     -5.819848
  O      68.418527     -7.084282     -7.955986
  H      68.870479     -7.910783     -8.017516
  C      66.367598     -5.318420     -7.880785
  O      66.418091     -4.391711     -8.613682
  O      65.468466     -6.280611     -8.044159
  H      64.975646     -6.095997     -8.834651
  C      68.138845     -4.312701     -6.342643
  H      67.552878     -3.402134     -6.476239
  H      68.361657     -4.376678     -5.274757
  C      67.127114     -8.053588     -6.157255
  H      67.737844     -8.960825     -6.164195
  H      66.797709     -7.891228     -5.129498
  H      66.254504     -8.219284     -6.783874
  C      69.479441     -4.181477     -7.091527
  H      69.875074     -5.169639     -7.329256
  H      70.193350     -3.729431     -6.395994
  C      69.470675     -3.331201     -8.362492
  H      68.793653     -3.760462     -9.097298
  H      69.069326     -2.340447     -8.127779
  C      70.861636     -3.181583     -8.970894
  H      70.833263     -2.565624     -9.872131
  H      71.558462     -2.711933     -8.271289
  H      71.278670     -4.152963     -9.249176
27
Coordinates from ORCA-job 2 Relaxed Surface Scan Step 10
  C      67.907869     -6.955847     -6.514767
  H      68.735442     -6.809340     -5.813079
  C      67.244736     -5.570573     -6.707977
  H      66.432791     -5.498350     -5.979998
  O      68.417807     -7.359725     -7.756796
  H      68.833794     -8.204029     -7.684721
  C      66.548676     -5.476195     -8.052247
  O      66.777152     -4.681222     -8.897209
  O      65.574469     -6.367629     -8.183416
  H      65.194032     -6.269001     -9.047910
  C      68.198750     -4.393701     -6.439686
  H      67.630532     -3.464848     -6.508996
  H      68.487071     -4.474344     -5.388747
  C      66.983821     -8.015338     -5.928779
  H      67.526358     -8.956797     -5.805235
  H      66.625657     -7.713208     -4.943111
  H      66.127071     -8.192423     -6.575150
  C      69.469620     -4.291020     -7.313527
  H      69.567287     -5.172528     -7.945464
  H      70.348533     -4.292078     -6.661405
  C      69.518037     -3.040959     -8.192896
  H      68.644043     -3.040289     -8.845611
  H      69.440894     -2.150485     -7.559373
  C      70.789270     -2.951996     -9.030448
  H      70.794557     -2.049995     -9.646053
  H      71.683499     -2.928374     -8.401667
  H      70.879544     -3.809862     -9.701271
27
Coordinates from ORCA-job 2 Relaxed Surface Scan Step 11
  C      67.901397     -6.956928     -6.469439
  H      68.712099     -6.774902     -5.756110
  C      67.225973     -5.588801     -6.718967
  H      66.422683     -5.486545     -5.984281
  O      68.441342     -7.391337     -7.687765
  H      68.887566     -8.215668     -7.576573
  C      66.516389     -5.543606     -8.060110
  O      66.716827     -4.752732     -8.916583
  O      65.569551     -6.465746     -8.173315
  H      65.178859     -6.388453     -9.035467
  C      68.171681     -4.391881     -6.536987
  H      67.586332     -3.480249     -6.658583
  H      68.490891     -4.391949     -5.491580
  C      66.982862     -8.011872     -5.866398
  H      67.539135     -8.938642     -5.700409
  H      66.599803     -7.683301     -4.898641
  H      66.142719     -8.226452     -6.522833
  C      69.407700     -4.335207     -7.459995
  H      69.337924     -5.095164     -8.234737
  H      70.305503     -4.578347     -6.882973
  C      69.589287     -2.972419     -8.126292
  H      68.702771     -2.771427     -8.734132
  H      69.629825     -2.190215     -7.360263
  C      70.837670     -2.890102     -8.997769
  H      70.927734     -1.909052     -9.468957
  H      71.745359     -3.060827     -8.412840
  H      70.811426     -3.638329     -9.793540
27
Coordinates from ORCA-job 2 Relaxed Surface Scan Step 12
  C      67.904969     -6.933669     -6.456646
  H      68.710020     -6.705656     -5.749893
  C      67.190411     -5.594438     -6.741293
  H      66.409857     -5.475284     -5.984390
  O      68.456690     -7.379499     -7.664955
  H      68.936692     -8.181562     -7.533666
  C      66.430763     -5.612228     -8.056521
  O      66.558316     -4.827203     -8.932238
  O      65.526264     -6.580473     -8.119008
  H      65.097408     -6.533687     -8.965089
  C      68.117469     -4.373424     -6.646944
  H      67.514389     -3.480874     -6.809725
  H      68.464915     -4.303586     -5.612307
  C      67.026358     -8.003478     -5.820712
  H      67.619380     -8.901139     -5.624550
  H      66.629587     -7.659335     -4.863914
  H      66.196382     -8.273093     -6.469135
  C      69.326475     -4.349038     -7.598477
  H      69.134748     -4.967965     -8.471140
  H      70.195204     -4.792157     -7.101631
  C      69.667216     -2.935971     -8.067789
  H      68.813212     -2.552997     -8.636587
  H      69.786955     -2.275094     -7.202211
  C      70.922677     -2.871443     -8.930663
  H      71.120273     -1.851775     -9.267908
  H      71.802399     -3.214450     -8.379947
  H      70.822281     -3.500635     -9.818202
27
Coordinates from ORCA-job 2 Relaxed Surface Scan Step 13
  C      67.916990     -6.898356     -6.466947
  H      68.729484     -6.620460     -5.786928
  C      67.150851     -5.593951     -6.774951
  H      66.393474     -5.469898     -5.995576
  O      68.455220     -7.359229     -7.675365
  H      68.966556     -8.139913     -7.533979
  C      66.346893     -5.684357     -8.060914
  O      66.412985     -4.926445     -8.966591
  O      65.477474     -6.686498     -8.057848
  H      65.016944     -6.683710     -8.888417
  C      68.043253     -4.343825     -6.755175
  H      67.415520     -3.477295     -6.960640
  H      68.402009     -4.210673     -5.730012
  C      67.094473     -7.979236     -5.776808
  H      67.726577     -8.846386     -5.565931
  H      66.706199     -7.619220     -4.822360
  H      66.261366     -8.301862     -6.396072
  C      69.240350     -4.335367     -7.713471
  H      68.969561     -4.807388     -8.655233
  H      70.052428     -4.937319     -7.295267
  C      69.742161     -2.920582     -7.996330
  H      68.943792     -2.365740     -8.501048
  H      69.933220     -2.397665     -7.052801
  C      71.001088     -2.886997     -8.856388
  H      71.316419     -1.861189     -9.058221
  H      71.832381     -3.398436     -8.364484
  H      70.833641     -3.378154     -9.817784
27
Coordinates from ORCA-job 2 Relaxed Surface Scan Step 14
  C      67.929906     -6.861417     -6.480946
  H      68.750224     -6.535349     -5.832373
  C      67.116603     -5.592851     -6.815772
  H      66.377557     -5.465394     -6.019800
  O      68.450396     -7.350628     -7.685863
  H      68.984445     -8.113363     -7.531098
  C      66.288742     -5.756896     -8.078724
  O      66.318355     -5.038452     -9.017829
  O      65.444309     -6.778145     -8.013925
  H      64.968335     -6.823325     -8.834507
  C      67.966807     -4.312889     -6.855910
  H      67.310234     -3.479657     -7.109353
  H      68.316783     -4.121712     -5.836620
  C      67.157744     -7.939821     -5.731051
  H      67.820941     -8.779637     -5.505468
  H      66.782590     -7.556512     -4.780441
  H      66.319558     -8.309408     -6.316277
  C      69.167069     -4.308048     -7.804894
  H      68.852708     -4.632339     -8.795886
  H      69.911261     -5.033704     -7.467021
  C      69.816259     -2.928877     -7.906314
  H      69.080303     -2.215327     -8.290477
  H      70.089433     -2.575802     -6.905929
  C      71.050331     -2.908305     -8.802478
  H      71.479001     -1.905937     -8.864817
  H      71.826820     -3.577930     -8.424131
  H      70.804595     -3.228428     -9.817635
27
Coordinates from ORCA-job 2 Relaxed Surface Scan Step 15
  C      67.940110     -6.826045     -6.489482
  H      68.766608     -6.454298     -5.874077
  C      67.089564     -5.592347     -6.861534
  H      66.360064     -5.457360     -6.058382
  O      68.445277     -7.359861     -7.681979
  H      68.990695     -8.109629     -7.504974
  C      66.257243     -5.829256     -8.109254
  O      66.273033     -5.158206     -9.083022
  O      65.428879     -6.858735     -7.989562
  H      64.951689     -6.953378     -8.805195
  C      67.897748     -4.287481     -6.952968
  H      67.213688     -3.489398     -7.250126
  H      68.231116     -4.045904     -5.938787
  C      67.206071     -7.884888     -5.675957
  H      67.889899     -8.702078     -5.429785
  H      66.844673     -7.467655     -4.734378
  H      66.362224     -8.294459     -6.225590
  C      69.107136     -4.277716     -7.889208
  H      68.771091     -4.440754     -8.913562
  H      69.775321     -5.107564     -7.650743
  C      69.891044     -2.968913     -7.805060
  H      69.221338     -2.127832     -8.006724
  H      70.251236     -2.826226     -6.780489
  C      71.073983     -2.912512     -8.766274
  H      71.610922     -1.965583     -8.680129
  H      71.786011     -3.716966     -8.565566
  H      70.744647     -3.015107     -9.802735
27
Coordinates from ORCA-job 2 Relaxed Surface Scan Step 16
  C      67.951416     -6.785231     -6.493130
  H      68.783391     -6.366231     -5.916643
  C      67.065297     -5.590306     -6.910551
  H      66.335420     -5.447851     -6.109327
  O      68.443622     -7.375592     -7.664659
  H      68.991845     -8.115566     -7.457491
  C      66.243668     -5.902297     -8.147785
  O      66.256206     -5.281418     -9.154149
  O      65.431641     -6.938238     -7.979715
  H      64.963098     -7.084823     -8.792642
  C      67.830464     -4.264466     -7.048069
  H      67.118280     -3.497562     -7.366203
  H      68.156372     -3.987523     -6.040653
  C      67.251316     -7.810922     -5.610434
  H      67.950253     -8.607489     -5.340310
  H      66.906356     -7.351425     -4.682519
  H      66.399990     -8.256288     -6.119803
  C      69.041414     -4.239780     -7.986147
  H      68.692586     -4.208328     -9.019283
  H      69.617678     -5.160886     -7.890183
  C      69.960251     -3.050299     -7.709053
  H      69.372852     -2.128276     -7.684690
  H      70.389137     -3.153618     -6.706448
  C      71.088071     -2.907869     -8.725575
  H      71.735461     -2.061928     -8.485316
  H      71.710952     -3.805452     -8.752539
  H      70.694273     -2.750490     -9.732224
27
Coordinates from ORCA-job 2 Relaxed Surface Scan Step 17
  C      67.976374     -6.721895     -6.500172
  H      68.804805     -6.248722     -5.961881
  C      67.036018     -5.579978     -6.950634
  H      66.301584     -5.448545     -6.151863
  O      68.467219     -7.351587     -7.652269
  H      69.036453     -8.068005     -7.420308
  C      66.233867     -5.967095     -8.178333
  O      66.237215     -5.387115     -9.208770
  O      65.454111     -7.021029     -7.973435
  H      64.999357     -7.218043     -8.783509
  C      67.737898     -4.224658     -7.127751
  H      66.984602     -3.497373     -7.444036
  H      68.064403     -3.917165     -6.129949
  C      67.326586     -7.728358     -5.559107
  H      68.053092     -8.493378     -5.271172
  H      66.987601     -7.239501     -4.644128
  H      66.477775     -8.218119     -6.031297
  C      68.936259     -4.166132     -8.089284
  H      68.581735     -3.903518     -9.087057
  H      69.397127     -5.149131     -8.186152
  C      69.998233     -3.163037     -7.638722
  H      69.528329     -2.199534     -7.421742
  H      70.429225     -3.500080     -6.689598
  C      71.115941     -2.966573     -8.656991
  H      71.868094     -2.264097     -8.291889
  H      71.621004     -3.910767     -8.875302
  H      70.726404     -2.576718     -9.600189
27
Coordinates from ORCA-job 2 Relaxed Surface Scan Step 18
  C      68.009524     -6.635531     -6.495559
  H      68.808032     -6.106036     -5.965155
  C      67.007865     -5.557773     -6.973148
  H      66.257037     -5.456151     -6.185226
  O      68.540606     -7.262327     -7.631749
  H      69.150883     -7.937630     -7.381476
  C      66.241604     -6.011619     -8.200952
  O      66.225421     -5.451180     -9.241964
  O      65.518931     -7.103113     -7.983834
  H      65.085154     -7.340404     -8.794621
  C      67.631149     -4.168321     -7.174974
  H      66.832435     -3.490124     -7.482700
  H      67.953269     -3.828351     -6.186770
  C      67.411198     -7.656332     -5.536168
  H      68.176377     -8.375180     -5.230043
  H      67.041891     -7.168051     -4.632694
  H      66.592269     -8.200586     -6.001613
  C      68.810454     -4.061048     -8.164040
  H      68.468814     -3.567471     -9.075286
  H      69.140711     -5.052733     -8.470335
  C      70.003674     -3.293923     -7.593428
  H      69.672779     -2.316749     -7.228498
  H      70.387239     -3.823923     -6.714652
  C      71.134312     -3.102856     -8.598393
  H      71.975453     -2.566504     -8.154094
  H      71.506485     -4.064082     -8.961097
  H      70.797741     -2.532156     -9.467071
27
Coordinates from ORCA-job 2 Relaxed Surface Scan Step 19
  C      68.031210     -6.533016     -6.441780
  H      68.738328     -5.954145     -5.839122
  C      66.988548     -5.523695     -6.973140
  H      66.205092     -5.451137     -6.213622
  O      68.697596     -7.079892     -7.547227
  H      69.344625     -7.706996     -7.265772
  C      66.277868     -6.031667     -8.214636
  O      66.223481     -5.464072     -9.250568
  O      65.645969     -7.181817     -8.017706
  H      65.236004     -7.440159     -8.834498
  C      67.542695     -4.106087     -7.186987
  H      66.707462     -3.469455     -7.479353
  H      67.863880     -3.740935     -6.207577
  C      67.456484     -7.625533     -5.548826
  H      68.261685     -8.273625     -5.191449
  H      66.973020     -7.192835     -4.671237
  H      66.733016     -8.236229     -6.083389
  C      68.694595     -3.946666     -8.204167
  H      68.383859     -3.249133     -8.984249
  H      68.883905     -4.890209     -8.711322
  C      69.997877     -3.443865     -7.582652
  H      69.817724     -2.488384     -7.078397
  H      70.322736     -4.139680     -6.802033
  C      71.120934     -3.273102     -8.599858
  H      72.037005     -2.914948     -8.125220
  H      71.350102     -4.219169     -9.095949
  H      70.845608     -2.553703     -9.374805
27
Coordinates from ORCA-job 2 Relaxed Surface Scan Step 20
  C      68.041612     -6.448890     -6.399453
  H      68.664310     -5.837660     -5.738587
  C      66.974460     -5.494608     -6.975885
  H      66.170168     -5.439499     -6.236438
  O      68.813605     -6.915095     -7.472092
  H      69.482577     -7.506460     -7.165665
  C      66.301130     -6.044160     -8.221960
  O      66.203883     -5.474277     -9.253615
  O      65.749130     -7.236457     -8.035199
  H      65.349829     -7.510153     -8.852339
  C      67.479307     -4.059722     -7.204429
  H      66.623283     -3.459502     -7.510444
  H      67.779912     -3.664563     -6.229928
  C      67.498000     -7.602124     -5.564648
  H      68.329918     -8.181833     -5.154674
  H      66.916047     -7.227784     -4.720662
  H      66.872451     -8.265687     -6.155482
  C      68.627288     -3.866546     -8.218215
  H      68.372996     -3.033898     -8.877613
  H      68.707759     -4.737096     -8.864918
  C      69.987544     -3.584514     -7.580304
  H      69.916927     -2.686474     -6.956298
  H      70.256010     -4.404721     -6.908833
  C      71.100303     -3.398044     -8.606371
  H      72.057677     -3.192628     -8.122502
  H      71.222123     -4.293374     -9.220352
  H      70.883060     -2.564385     -9.278633
27
Coordinates from ORCA-job 2 Relaxed Surface Scan Step 21
  C      68.052707     -6.412045     -6.399077
  H      68.665241     -5.781669     -5.747055
  C      66.970719     -5.485417     -6.990273
  H      66.165544     -5.433791     -6.251654
  O      68.830272     -6.880329     -7.466699
  H      69.506833     -7.460092     -7.154842
  C      66.310707     -6.069800     -8.228125
  O      66.206893     -5.522383     -9.271312
  O      65.778299     -7.267328     -8.019822
  H      65.387282     -7.563830     -8.833004
  C      67.439714     -4.040894     -7.240612
  H      66.572583     -3.483409     -7.593543
  H      67.694301     -3.607288     -6.269045
  C      67.528823     -7.562035     -5.547011
  H      68.370683     -8.120083     -5.127365
  H      66.939589     -7.184994     -4.709320
  H      66.915692     -8.245922     -6.127533
  C      68.606463     -3.820208     -8.223461
  H      68.405890     -2.903770     -8.784130
  H      68.627821     -4.618546     -8.962569
  C      69.984173     -3.686806     -7.573704
  H      69.964207     -2.868517     -6.845424
  H      70.220937     -4.593942     -7.014590
  C      71.093874     -3.429054     -8.588134
  H      72.065112     -3.329556     -8.098496
  H      71.165860     -4.247977     -9.307576
  H      70.911092     -2.510469     -9.151164
27
Coordinates from ORCA-job 2 Relaxed Surface Scan Step 22
  C      68.058896     -6.397445     -6.398269
  H      68.682837     -5.751516     -5.773146
  C      66.973705     -5.486897     -7.007918
  H      66.164319     -5.431585     -6.274168
  O      68.820215     -6.904407     -7.460102
  H      69.493169     -7.483628     -7.139587
  C      66.330035     -6.101953     -8.239637
  O      66.240121     -5.582207     -9.298175
  O      65.796002     -7.294270     -8.007203
  H      65.419045     -7.613917     -8.818228
  C      67.417179     -4.036743     -7.275717
  H      66.545146     -3.516679     -7.672411
  H      67.627077     -3.573764     -6.306711
  C      67.535903     -7.516795     -5.505727
  H      68.377507     -8.072215     -5.082105
  H      66.963220     -7.108970     -4.670980
  H      66.906761     -8.209943     -6.057652
  C      68.599497     -3.781082     -8.227021
  H      68.442887     -2.795639     -8.675486
  H      68.572193     -4.491517     -9.052057
  C      69.988785     -3.782873     -7.586988
  H      70.004175     -3.077521     -6.749027
  H      70.208952     -4.766466     -7.172441
  C      71.089724     -3.410071     -8.575596
  H      72.071274     -3.412952     -8.096541
  H      71.124450     -4.115693     -9.408901
  H      70.928235     -2.413406     -8.993745
27
Coordinates from ORCA-job 2 Relaxed Surface Scan Step 23
  C      68.063820     -6.394011     -6.391515
  H      68.707315     -5.734483     -5.801875
  C      66.983146     -5.495722     -7.028884
  H      66.162595     -5.437867     -6.307809
  O      68.803308     -6.962861     -7.437609
  H      69.464720     -7.544927     -7.098758
  C      66.366408     -6.139159     -8.259382
  O      66.306753     -5.649370     -9.334193
  O      65.818955     -7.320970     -8.005534
  H      65.464588     -7.664794     -8.816792
  C      67.404216     -4.039826     -7.303868
  H      66.528837     -3.549262     -7.730897
  H      67.576777     -3.562426     -6.334151
  C      67.526020     -7.463877     -5.448604
  H      68.357856     -8.028079     -5.017435