24
Coordinates from ORCA-job 7 Relaxed Surface Scan Step 1
  C      67.913898     -6.538124     -7.333949
  H      68.956426     -6.651369     -7.028364
  C      67.318579     -5.404562     -6.472502
  H      66.940407     -5.870998     -5.556937
  O      67.862103     -6.114104     -8.669269
  H      68.187319     -6.788222     -9.244483
  C      66.101672     -4.786078     -7.140566
  O      65.976852     -3.642705     -7.415281
  O      65.125204     -5.660103     -7.349688
  H      64.409690     -5.208732     -7.781285
  C      68.305723     -4.318734     -6.003477
  H      67.697474     -3.572550     -5.491597
  H      68.951304     -4.770789     -5.243828
  C      67.238402     -7.892498     -7.155095
  H      67.738469     -8.639866     -7.777644
  H      67.316574     -8.227560     -6.119386
  H      66.188388     -7.856396     -7.434087
  C      69.184834     -3.558956     -7.007376
  H      69.557375     -2.683784     -6.465510
  H      68.568875     -3.178061     -7.821616
  C      70.398524     -4.296973     -7.570347
  H      71.034242     -3.601914     -8.123168
  H      71.008711     -4.730604     -6.772661
  H      70.114235     -5.090329     -8.257876
24
Coordinates from ORCA-job 7 Relaxed Surface Scan Step 2
  C      67.906928     -6.559207     -7.312175
  H      68.935314     -6.703132     -6.967576
  C      67.320790     -5.414735     -6.460020
  H      66.921939     -5.873924     -5.550876
  O      67.913202     -6.123615     -8.644315
  H      68.242449     -6.800591     -9.213855
  C      66.114964     -4.768165     -7.121422
  O      65.990582     -3.612860     -7.341553
  O      65.142359     -5.631421     -7.385333
  H      64.430358     -5.158981     -7.799882
  C      68.339875     -4.356756     -5.998037
  H      67.784339     -3.637167     -5.396240
  H      69.035225     -4.849818     -5.311519
  C      67.192004     -7.897461     -7.168424
  H      67.700001     -8.653342     -7.774076
  H      67.219737     -8.239416     -6.132366
  H      66.155778     -7.835549     -7.490258
  C      69.142303     -3.573815     -7.051930
  H      69.423568     -2.623397     -6.590885
  H      68.499046     -3.319247     -7.892480
  C      70.419751     -4.241854     -7.557559
  H      70.974390     -3.556140     -8.201835
  H      71.080100     -4.518207     -6.730647
  H      70.210280     -5.135210     -8.142731
24
Coordinates from ORCA-job 7 Relaxed Surface Scan Step 3
  C      67.892911     -6.586707     -7.294578
  H      68.903900     -6.768678     -6.914562
  C      67.325146     -5.429898     -6.447497
  H      66.919075     -5.878396     -5.536677
  O      67.960072     -6.138669     -8.620597
  H      68.291365     -6.819177     -9.184724
  C      66.124645     -4.755981     -7.090876
  O      66.002327     -3.591545     -7.258246
  O      65.151718     -5.604081     -7.398293
  H      64.440390     -5.110546     -7.788790
  C      68.378043     -4.396442     -6.007399
  H      67.881812     -3.699784     -5.332790
  H      69.114049     -4.923603     -5.393071
  C      67.132479     -7.903307     -7.190069
  H      67.644775     -8.670192     -7.778031
  H      67.105219     -8.251729     -6.156138
  H      66.113743     -7.810059     -7.556229
  C      69.105494     -3.595333     -7.106597
  H      69.258186     -2.579571     -6.734451
  H      68.464211     -3.493142     -7.978792
  C      70.457402     -4.164104     -7.531226
  H      70.934995     -3.511119     -8.264959
  H      71.138524     -4.254958     -6.680624
  H      70.354798     -5.146991     -7.990777
24
Coordinates from ORCA-job 7 Relaxed Surface Scan Step 4
  C      67.865675     -6.632189     -7.284255
  H      68.858694     -6.856970     -6.878455
  C      67.333670     -5.453646     -6.444024
  H      66.931254     -5.885306     -5.523219
  O      67.985987     -6.187272     -8.607245
  H      68.308399     -6.880168     -9.161395
  C      66.138930     -4.747400     -7.061796
  O      66.031445     -3.576126     -7.187159
  O      65.152974     -5.570636     -7.393291
  H      64.444433     -5.053218     -7.757137
  C      68.427573     -4.450050     -6.038175
  H      68.001011     -3.776615     -5.296622
  H      69.196738     -5.014416     -5.503771
  C      67.050864     -7.917791     -7.202739
  H      67.556470     -8.706537     -7.767141
  H      66.969250     -8.259844     -6.169541
  H      66.051857     -7.788083     -7.609348
  C      69.079266     -3.622393     -7.169156
  H      69.060728     -2.568434     -6.883326
  H      68.481598     -3.687843     -8.074143
  C      70.513316     -4.033552     -7.490516
  H      70.932452     -3.403803     -8.278253
  H      71.163612     -3.944457     -6.616056
  H      70.559084     -5.067262     -7.839228
24
Coordinates from ORCA-job 7 Relaxed Surface Scan Step 5
  C      67.661418     -6.802270     -7.425398
  H      68.677994     -7.147047     -7.197068
  C      67.427325     -5.573732     -6.521148
  H      67.096673     -5.957990     -5.552890
  O      67.593299     -6.366881     -8.754856
  H      67.725749     -7.089828     -9.347219
  C      66.262592     -4.703432     -6.961118
  O      66.281779     -3.523706     -7.048016
  O      65.146758     -5.390465     -7.166516
  H      64.465720     -4.779991     -7.422422
  C      68.710526     -4.760740     -6.271980
  H      68.523607     -4.046304     -5.470069
  H      69.454142     -5.457865     -5.873446
  C      66.727233     -7.981264     -7.178973
  H      67.017702     -8.818490     -7.820060
  H      66.800400     -8.323955     -6.145294
  H      65.693059     -7.725507     -7.392360
  C      69.310444     -4.013231     -7.465484
  H      68.583183     -3.286157     -7.828253
  H      69.495664     -4.708041     -8.285512
  C      70.607021     -3.297686     -7.097624
  H      71.015873     -2.762253     -7.956838
  H      70.446135     -2.567218     -6.300798
  H      71.370985     -3.999957     -6.752651
24
Coordinates from ORCA-job 7 Relaxed Surface Scan Step 6
  C      67.678452     -6.872917     -7.343188
  H      68.629508     -7.279757     -6.975161
  C      67.449207     -5.595925     -6.512625
  H      67.124725     -5.935341     -5.524959
  O      67.810348     -6.496037     -8.684914
  H      67.937594     -7.256354     -9.229714
  C      66.287756     -4.713945     -6.941538
  O      66.247693     -3.541202     -6.783436
  O      65.248147     -5.373968     -7.428492
  H      64.566019     -4.743349     -7.626778
  C      68.747642     -4.785391     -6.301634
  H      68.641902     -4.177161     -5.404344
  H      69.535591     -5.506936     -6.069540
  C      66.643378     -7.980073     -7.172393
  H      66.976689     -8.871842     -7.711015
  H      66.541518     -8.257789     -6.121676
  H      65.670180     -7.689697     -7.555982
  C      69.215197     -3.881143     -7.446253
  H      68.485231     -3.082091     -7.584087
  H      69.251004     -4.448616     -8.376343
  C      70.584723     -3.269429     -7.164391
  H      70.891462     -2.606654     -7.976015
  H      70.576548     -2.680121     -6.243813
  H      71.354765     -4.038274     -7.057698
24
Coordinates from ORCA-job 7 Relaxed Surface Scan Step 7
  C      67.715344     -7.026254     -7.158638
  H      68.470973     -7.589073     -6.594295
  C      67.542932     -5.720138     -6.372002
  H      67.328525     -6.018761     -5.347071
  O      68.209045     -6.748161     -8.435503
  H      68.346093     -7.551426     -8.911491
  C      66.353380     -4.848249     -6.730832
  O      65.775196     -4.190189     -5.931988
  O      66.017244     -4.843866     -8.009296
  H      65.288449     -4.244965     -8.122290
  C      68.837101     -4.867081     -6.328151
  H      68.866789     -4.344766     -5.370480
  H      69.683394     -5.557896     -6.324344
  C      66.454942     -7.881910     -7.217558
  H      66.675351     -8.842246     -7.690833
  H      66.075729     -8.090972     -6.215569
  H      65.673752     -7.393324     -7.797827
  C      69.026735     -3.841528     -7.447881
  H      68.243266     -3.080252     -7.376356
  H      68.908415     -4.327443     -8.414951
  C      70.385920     -3.152962     -7.372937
  H      70.491195     -2.406564     -8.162554
  H      70.524711     -2.644040     -6.415700
  H      71.200798     -3.871946     -7.487445
24
Coordinates from ORCA-job 7 Relaxed Surface Scan Step 8
  C      67.705436     -7.067605     -7.112098
  H      68.427498     -7.626644     -6.499409
  C      67.551162     -5.721169     -6.392779
  H      67.308573     -5.957393     -5.359610
  O      68.243365     -6.849488     -8.382751
  H      68.384560     -7.672756     -8.821808
  C      66.378057     -4.856089     -6.817933
  O      65.750855     -4.201041     -6.054120
  O      66.108240     -4.860853     -8.112212
  H      65.380868     -4.269186     -8.265228
  C      68.880015     -4.912308     -6.388159
  H      69.050325     -4.530289     -5.381547
  H      69.691804     -5.612973     -6.587463
  C      66.423390     -7.889404     -7.175898
  H      66.629342     -8.874812     -7.601609
  H      66.007084     -8.044136     -6.178771
  H      65.675401     -7.404062     -7.801174
  C      68.982240     -3.746453     -7.372973
  H      68.236783     -2.987062     -7.111495
  H      68.746909     -4.096134     -8.378264
  C      70.364562     -3.101705     -7.361348
  H      70.409201     -2.257573     -8.052037
  H      70.623483     -2.729765     -6.366841
  H      71.136126     -3.815112     -7.660463
24
Coordinates from ORCA-job 7 Relaxed Surface Scan Step 9
  C      67.683045     -7.119639     -7.086861
  H      68.407514     -7.656597     -6.459839
  C      67.576258     -5.722441     -6.458191
  H      67.329567     -5.880574     -5.410635
  O      68.188177     -7.002081     -8.383587
  H      68.305181     -7.857293     -8.764808
  C      66.409840     -4.882745     -6.949232
  O      65.709773     -4.259668     -6.222626
  O      66.225750     -4.880301     -8.258481
  H      65.489899     -4.311669     -8.452407
  C      68.935855     -4.960243     -6.516461
  H      69.257368     -4.763415     -5.492367
  H      69.677751     -5.629766     -6.949733
  C      66.376496     -7.904051     -7.063189
  H      66.539396     -8.919482     -7.433071
  H      65.982604     -7.982587     -6.048489
  H      65.625823     -7.434740     -7.698652
  C      68.969816     -3.642549     -7.292807
  H      68.250176     -2.940987     -6.859728
  H      68.660488     -3.820100     -8.323494
  C      70.354589     -3.003062     -7.279544
  H      70.357385     -2.063180     -7.834625
  H      70.684283     -2.786835     -6.260384
  H      71.098244     -3.660008     -7.736781
24
Coordinates from ORCA-job 7 Relaxed Surface Scan Step 10
  C      67.648940     -7.161163     -7.079823
  H      68.445747     -7.641631     -6.503579
  C      67.605781     -5.705573     -6.581814
  H      67.381481     -5.753589     -5.515385
  O      67.995125     -7.174760     -8.433002
  H      68.106005     -8.064482     -8.727258
  C      66.427033     -4.932820     -7.147949
  O      65.554484     -4.492358     -6.475873
  O      66.430400     -4.787042     -8.461097
  H      65.659316     -4.289715     -8.706498
  C      68.985239     -5.009758     -6.754450
  H      69.489605     -5.062703     -5.783507
  H      69.585288     -5.587987     -7.455733
  C      66.352512     -7.923144     -6.833695
  H      66.468019     -8.968965     -7.128915
  H      66.073717     -7.902921     -5.779492
  H      65.533217     -7.502459     -7.418190
  C      68.979256     -3.552520     -7.223514
  H      68.248685     -2.973227     -6.654232
  H      68.652408     -3.513169     -8.262673
  C      70.351277     -2.898193     -7.100174
  H      70.333488     -1.874028     -7.477326
  H      70.685264     -2.863456     -6.060402
  H      71.102992     -3.448349     -7.671410
24
Coordinates from ORCA-job 7 Relaxed Surface Scan Step 11
  C      67.597740     -7.148984     -7.118902
  H      68.584826     -7.502055     -6.810121
  C      67.562411     -5.632761     -6.826782
  H      67.300900     -5.504562     -5.772836
  O      67.476397     -7.308136     -8.505618
  H      67.515086     -8.223455     -8.732357
  C      66.398688     -5.028950     -7.595076
  O      65.281063     -5.043627     -7.197829
  O      66.717388     -4.495884     -8.759497
  H      65.920139     -4.196272     -9.179545
  C      68.943581     -4.999491     -7.064404
  H      69.577375     -5.353397     -6.240544
  H      69.371763     -5.396719     -7.986670
  C      66.533044     -7.942929     -6.375657
  H      66.606507     -9.002677     -6.634640
  H      66.667185     -7.856620     -5.296340
  H      65.533995     -7.592175     -6.629192
  C      68.990051     -3.468096     -7.101506
  H      68.260308     -3.055281     -6.400067
  H      68.676264     -3.123323     -8.085387
  C      70.374991     -2.910518     -6.789769
  H      70.389737     -1.822120     -6.872418
  H      70.693685     -3.171339     -5.777603
  H      71.122153     -3.304639     -7.483232
24
Coordinates from ORCA-job 7 Relaxed Surface Scan Step 12
  C      67.604434     -7.150528     -7.069546
  H      68.555318     -7.495078     -6.653246
  C      67.551043     -5.625932     -6.833850
  H      67.261117     -5.467775     -5.792307
  O      67.608448     -7.357688     -8.454778
  H      67.652259     -8.280875     -8.646020
  C      66.411041     -5.048573     -7.655927
  O      65.279207     -5.058675     -7.301589
  O      66.772258     -4.540989     -8.820163
  H      65.991120     -4.251659     -9.276074
  C      68.925091     -4.982191     -7.065614
  H      69.597776     -5.414170     -6.315003
  H      69.305185     -5.281876     -8.043632
  C      66.475096     -7.919894     -6.398161
  H      66.579561     -8.988796     -6.603545
  H      66.504563     -7.787586     -5.315651
  H      65.502492     -7.590634     -6.759384
  C      68.969128     -3.458182     -6.938764
  H      68.420612     -3.146593     -6.045428
  H      68.450554     -3.006685     -7.784196
  C      70.392756     -2.913519     -6.876642
  H      70.395398     -1.823532     -6.817157
  H      70.929154     -3.294638     -6.004233
  H      70.961668     -3.197944     -7.765082
24
Coordinates from ORCA-job 7 Relaxed Surface Scan Step 13
  C      67.606447     -7.153730     -7.015442
  H      68.506565     -7.487417     -6.488754
  C      67.549292     -5.622447     -6.842727
  H      67.242263     -5.429351     -5.813100
  O      67.742668     -7.411724     -8.384902
  H      67.791870     -8.341614     -8.538986
  C      66.427769     -5.062001     -7.701242
  O      65.286233     -5.074272     -7.379992
  O      66.819959     -4.560443     -8.858623
  H      66.051316     -4.271787     -9.335686
  C      68.918825     -4.976754     -7.086132
  H      69.634488     -5.481449     -6.429725
  H      69.235292     -5.177272     -8.109930
  C      66.413296     -7.895662     -6.427836
  H      66.543204     -8.972302     -6.568359
  H      66.329159     -7.710730     -5.356057
  H      65.481709     -7.594123     -6.902492
  C      68.976956     -3.475392     -6.803542
  H      68.611187     -3.280465     -5.790670
  H      68.303557     -2.946394     -7.480069
  C      70.382630     -2.901339     -6.951101
  H      70.392721     -1.827728     -6.753886
  H      71.080761     -3.372754     -6.255016
  H      70.767111     -3.056859     -7.961723
24
Coordinates from ORCA-job 7 Relaxed Surface Scan Step 14
  C      67.605611     -7.149220     -6.963786
  H      68.453908     -7.454342     -6.339527
  C      67.544683     -5.613021     -6.866973
  H      67.227322     -5.377011     -5.850363
  O      67.861118     -7.467452     -8.302739
  H      67.917604     -8.403272     -8.412322
  C      66.430625     -5.075373     -7.750290
  O      65.283170     -5.108352     -7.452454
  O      66.835966     -4.557431     -8.896155
  H      66.071377     -4.273846     -9.382743
  C      68.912422     -4.972205     -7.132777
  H      69.664660     -5.546827     -6.587421
  H      69.158168     -5.070801     -8.189113
  C      66.367746     -7.871562     -6.448345
  H      66.524327     -8.952272     -6.507337
  H      66.176464     -7.622145     -5.403885
  H      65.483099     -7.617639     -7.028206
  C      69.006631     -3.509566     -6.699450
  H      68.799952     -3.438312     -5.625981
  H      68.233029     -2.923555     -7.201946
  C      70.369483     -2.890046     -6.991482
  H      70.408793     -1.849624     -6.663385
  H      71.169119     -3.429866     -6.478244
  H      70.590001     -2.910270     -8.061070
24
Coordinates from ORCA-job 7 Relaxed Surface Scan Step 15
  C      67.603949     -7.129369     -6.925309
  H      68.423569     -7.384586     -6.240833
  C      67.527991     -5.591741     -6.916813
  H      67.200182     -5.305339     -5.917025
  O      67.931948     -7.512665     -8.230944
  H      68.000905     -8.452217     -8.290393
  C      66.410838     -5.099454     -7.824030
  O      65.259971     -5.189947     -7.552109
  O      66.812959     -4.542558     -8.952713
  H      66.044309     -4.284720     -9.447289
  C      68.894440     -4.954420     -7.207525
  H      69.671523     -5.595623     -6.788700
  H      69.068936     -4.940119     -8.281420
  C      66.354350     -7.847103     -6.432820
  H      66.540721     -8.924491     -6.407672
  H      66.095266     -7.532817     -5.421100
  H      65.500176     -7.657601     -7.078521
  C      69.045143     -3.550439     -6.623359
  H      68.949421     -3.607464     -5.532404
  H      68.225815     -2.914974     -6.972163
  C      70.374671     -2.893642     -6.978857
  H      70.458023     -1.901641     -6.530867
  H      71.218436     -3.490113     -6.623145
  H      70.481739     -2.780970     -8.059981
24
Coordinates from ORCA-job 7 Relaxed Surface Scan Step 16
  C      67.606150     -7.091834     -6.906713
  H      68.420920     -7.291499     -6.197530
  C      67.502125     -5.557711     -6.979319
  H      67.163643     -5.228701     -5.996875
  O      67.962186     -7.534531     -8.185734
  H      68.054480     -8.473933     -8.195042
  C      66.373699     -5.130451     -7.905742
  O      65.226407     -5.230544     -7.621582
  O      66.755822     -4.620232     -9.062850
  H      65.977625     -4.403373     -9.562189
  C      68.863626     -4.912530     -7.294284
  H      69.655270     -5.610369     -7.020828
  H      68.964652     -4.766175     -8.367087
  C      66.365461     -7.811044     -6.395028
  H      66.576444     -8.880727     -6.308772
  H      66.082063     -7.448958     -5.406125
  H      65.517803     -7.677612     -7.062965
  C      69.085233     -3.593036     -6.556038
  H      69.061973     -3.783056     -5.475837
  H      68.255326     -2.910403     -6.765142
  C      70.400254     -2.913247     -6.921168
  H      70.534467     -1.984942     -6.362648
  H      71.253702     -3.559293     -6.701100
  H      70.435951     -2.669811     -7.985394
24
Coordinates from ORCA-job 7 Relaxed Surface Scan Step 17
  C      67.611954     -7.039268     -6.906336
  H      68.447824     -7.187818     -6.210554
  C      67.467213     -5.512526     -7.048050
  H      67.110199     -5.150041     -6.083954
  O      67.948897     -7.533758     -8.171256
  H      68.067540     -8.469634     -8.137725
  C      66.330132     -5.174087     -8.000215
  O      65.186098     -5.257185     -7.697088
  O      66.697347     -4.772915     -9.203718
  H      65.912825     -4.615342     -9.715159
  C      68.816995     -4.842562     -7.381354
  H      69.615293     -5.577875     -7.274474
  H      68.839788     -4.543933     -8.426546
  C      66.399471     -7.759635     -6.332437
  H      66.631742     -8.821235     -6.209483
  H      66.136730     -7.362985     -5.351060
  H      65.531662     -7.667719     -6.981469
  C      69.120513     -3.638668     -6.489891
  H      69.143419     -3.964585     -5.443459
  H      68.303606     -2.913497     -6.564467
  C      70.437698     -2.952470     -6.834306
  H      70.628023     -2.105960     -6.171829
  H      71.279373     -3.643055     -6.740947
  H      70.430939     -2.577259     -7.860213
24
Coordinates from ORCA-job 7 Relaxed Surface Scan Step 18
  C      67.619269     -6.980343     -6.907124
  H      68.481670     -7.079445     -6.237679
  C      67.424406     -5.465796     -7.113813
  H      67.038971     -5.075606     -6.171376
  O      67.926781     -7.525237     -8.158872
  H      68.075721     -8.454410     -8.084916
  C      66.292206     -5.224658     -8.100210
  O      65.146491     -5.313962     -7.805042
  O      66.667405     -4.907664     -9.325885
  H      65.887658     -4.813645     -9.859662
  C      68.756497     -4.760359     -7.456640
  H      69.549359     -5.506839     -7.526522
  H      68.700627     -4.304967     -8.442568
  C      66.443391     -7.700218     -6.260925
  H      66.697479     -8.753139     -6.110075
  H      66.213116     -7.273004     -5.284100
  H      65.549585     -7.644420     -6.878237
  C      69.148657     -3.697054     -6.430757
  H      69.212099     -4.152428     -5.437017
  H      68.354855     -2.945795     -6.367271
  C      70.470184     -3.009470     -6.755481
  H      70.720053     -2.257662     -6.004478
  H      71.291761     -3.728897     -6.791744
  H      70.427037     -2.508993     -7.725598
24
Coordinates from ORCA-job 7 Relaxed Surface Scan Step 19
  C      67.626057     -6.916852     -6.901355
  H      68.514415     -6.966680     -6.263647
  C      67.375158     -5.420373     -7.174781
  H      66.947481     -5.003875     -6.261758
  O      67.904905     -7.512187     -8.137626
  H      68.080142     -8.432970     -8.026310
  C      66.266484     -5.284594     -8.206772
  O      65.118036     -5.434693     -7.949721
  O      66.669839     -4.985387     -9.427768
  H      65.908477     -4.961482     -9.994732
  C      68.683604     -4.672977     -7.516215
  H      69.457135     -5.401429     -7.767323
  H      68.550097     -4.066290     -8.409369
  C      66.492090     -7.633883     -6.181490
  H      66.770479     -8.676404     -6.003675
  H      66.296295     -7.175130     -5.211258
  H      65.573226     -7.613603     -6.763124
  C      69.171434     -3.772077     -6.381421
  H      69.277677     -4.350981     -5.459693
  H      68.407945     -3.015955     -6.172366
  C      70.493959     -3.080639     -6.694682
  H      70.807968     -2.435890     -5.871681
  H      71.289450     -3.809069     -6.868707
  H      70.412926     -2.460590     -7.590516
24
Coordinates from ORCA-job 7 Relaxed Surface Scan Step 20
  C      67.629074     -6.851522     -6.877851
  H      68.522926     -6.850761     -6.247518
  C      67.324902     -5.378465     -7.219026
  H      66.847090     -4.938161     -6.342354
  O      67.918137     -7.493046     -8.089418
  H      68.114048     -8.404115     -7.939691
  C      66.256945     -5.340459     -8.300620
  O      65.108922     -5.554306     -8.092331
  O      66.700969     -5.045453     -9.508444
  H      65.969132     -5.082688    -10.112314
  C      68.604872     -4.587675     -7.553314
  H      69.340241     -5.267826     -7.988197
  H      68.393064     -3.845182     -8.321298
  C      66.519830     -7.567428     -6.119503
  H      66.823323     -8.595918     -5.904812
  H      66.323728     -7.076183     -5.165235
  H      65.595768     -7.588925     -6.692893
  C      69.203462     -3.868568     -6.344108
  H      69.377964     -4.571513     -5.525787
  H      68.475162     -3.144827     -5.964648
  C      70.508011     -3.147677     -6.667905
  H      70.900496     -2.627815     -5.791932
  H      71.272966     -3.848986     -7.009235
  H      70.364246     -2.406513     -7.457557
24
Coordinates from ORCA-job 7 Relaxed Surface Scan Step 21
  C      67.618834     -6.787128     -6.821077
  H      68.476375     -6.729874     -6.144896
  C      67.278666     -5.342498     -7.239699
  H      66.747103     -4.877516     -6.407563
  O      67.991947     -7.466078     -7.989072
  H      68.205383     -8.364244     -7.792702
  C      66.264894     -5.385282     -8.371939
  O      65.117965     -5.644698     -8.217161
  O      66.759398     -5.099828     -9.562489
  H      66.062754     -5.181061    -10.202528
  C      68.531446     -4.514050     -7.566849
  H      69.201025     -5.112565     -8.186927
  H      68.242906     -3.655932     -8.175160
  C      66.496415     -7.511847     -6.090390
  H      66.824726     -8.518212     -5.815578
  H      66.232979     -6.988993     -5.169694
  H      65.605162     -7.592142     -6.708669
  C      69.268822     -3.995698     -6.331840
  H      69.558134     -4.822419     -5.678548
  H      68.588695     -3.371188     -5.743774
  C      70.513731     -3.187562     -6.685474
  H      71.012136     -2.816545     -5.787920
  H      71.233772     -3.793975     -7.239653
  H      70.262011     -2.324674     -7.306388
24
Coordinates from ORCA-job 7 Relaxed Surface Scan Step 22
  C      67.580469     -6.708708     -6.705335
  H      68.304835     -6.568531     -5.898026
  C      67.240279     -5.303151     -7.235653
  H      66.669105     -4.799644     -6.453331
  O      68.178012     -7.407029     -7.762821
  H      68.397059     -8.284905     -7.493929
  C      66.273048     -5.407674     -8.404307
  O      65.119990     -5.658077     -8.283557
  O      66.814275     -5.184508     -9.588245
  H      66.139974     -5.287576    -10.248804
  C      68.482283     -4.463712     -7.573663
  H      69.043371     -4.955213     -8.367543
  H      68.142364     -3.511005     -7.987397
  C      66.399305     -7.477853     -6.127286
  H      66.748492     -8.434038     -5.727371
  H      65.939362     -6.925891     -5.306540
  H      65.637178     -7.672447     -6.878038
  C      69.404714     -4.177397     -6.388743
  H      69.865532     -5.104417     -6.039344
  H      68.819701     -3.788160     -5.548707
  C      70.509327     -3.183565     -6.736231
  H      71.166426     -3.009230     -5.882114
  H      71.125085     -3.552107     -7.559835
  H      70.095092     -2.219173     -7.039172
24
Coordinates from ORCA-job 7 Relaxed Surface Scan Step 23
  C      67.557737     -6.595280     -6.611719
  H      68.126427     -6.355189     -5.706357
  C      67.170516     -5.238434     -7.227572
  H      66.539068     -4.746840     -6.487052
  O      68.379848     -7.255807     -7.532036
  H      68.640640     -8.097292     -7.192768
  C      66.247117     -5.419371     -8.421397
  O      65.075965     -5.580100     -8.322588
  O      66.844385     -5.383923     -9.599080
  H      66.187031     -5.520388    -10.270691
  C      68.382994     -4.344590     -7.548350
  H      68.840913     -4.669357     -8.479643
  H      68.012746     -3.331059     -7.731317
  C      66.379532     -7.466548     -6.194670
  H      66.750231     -8.364062     -5.691934
  H      65.728152     -6.939967     -5.496730
  H      65.781650     -7.775214     -7.050061
  C      69.460545     -4.300915     -6.466121
  H      69.909394     -5.294228     -6.378237
  H      69.014096     -4.066716     -5.493798
  C      70.553832     -3.282187     -6.773327
  H      71.326707     -3.288800     -6.002347
  H      71.036250     -3.499023     -7.729132
  H      70.149503     -2.268722     -6.829065
24
Coordinates from ORCA-job 7 Relaxed Surface Scan Step 24
  C      67.525325     -6.541118     -6.566985
  H      68.082432     -6.253593     -5.667790
  C      67.115380     -5.218590     -7.242545
  H      66.373256     -4.779218     -6.578398
  O      68.359306     -7.231472     -7.454846
  H      68.625809     -8.056014     -7.079947
  C      66.321525     -5.498705     -8.510183
  O      65.165477     -5.765844     -8.505492
  O      67.009883     -5.430850     -9.635057
  H      66.427458     -5.648935    -10.352660
  C      68.280962     -4.217855     -7.455827
  H      68.632251     -4.268247     -8.482299
  H      67.878332     -3.208068     -7.332693
  C      66.355711     -7.410926     -6.121945
  H      66.736786     -8.293109     -5.599973
  H      65.707494     -6.872402     -5.429843
  H      65.753583     -7.742602     -6.965156
  C      69.498419     -4.387496     -6.546398
  H      69.911104     -5.387361     -6.708091
  H      69.206359     -4.324380     -5.493607
  C      70.572696     -3.340009     -6.822750
  H      71.440204     -3.487045     -6.176500
  H      70.917724     -3.391771     -7.857959
  H      70.197803     -2.328402     -6.649049
