27
Coordinates from ORCA-job 8 Relaxed Surface Scan Step 1
  C      67.566961     -6.466420     -7.323495
  H      67.983428     -6.837908     -6.384204
  C      67.071650     -5.032809     -7.026580
  H      66.062902     -5.092421     -6.618047
  O      68.599996     -6.317570     -8.260115
  H      69.008768     -7.148692     -8.439712
  C      66.956379     -4.207116     -8.296796
  O      67.555446     -3.212819     -8.517964
  O      66.055299     -4.680916     -9.149279
  H      66.052975     -4.124215     -9.918753
  C      67.983823     -4.326912     -6.025729
  H      67.655083     -3.304724     -5.845663
  H      67.981015     -4.861068     -5.074175
  H      69.004726     -4.288423     -6.402320
  C      66.508999     -7.465965     -7.815784
  H      67.038995     -8.221421     -8.406813
  H      65.832647     -6.963102     -8.503841
  C      65.712724     -8.246236     -6.755723
  H      64.880009     -8.720942     -7.283004
  H      66.334825     -9.062288     -6.373546
  C      65.146998     -7.490542     -5.552540
  H      65.968535     -7.117672     -4.933083
  H      64.575188     -6.619669     -5.883974
  C      64.250988     -8.371504     -4.685955
  H      64.793387     -9.244907     -4.315991
  H      63.876517     -7.822697     -3.819867
  H      63.387464     -8.732846     -5.249096
27
Coordinates from ORCA-job 8 Relaxed Surface Scan Step 2
  C      67.577403     -6.479771     -7.344732
  H      68.025174     -6.886934     -6.432034
  C      67.113924     -5.047363     -6.997664
  H      66.119225     -5.101533     -6.554993
  O      68.575221     -6.322769     -8.317447
  H      68.967599     -7.154199     -8.529233
  C      66.962872     -4.194449     -8.245873
  O      67.559320     -3.198156     -8.465272
  O      66.032674     -4.647032     -9.078198
  H      66.007817     -4.074638     -9.835613
  C      68.071634     -4.375192     -6.016487
  H      67.764992     -3.352373     -5.804113
  H      68.095465     -4.929005     -5.076428
  H      69.078870     -4.343602     -6.428931
  C      66.488217     -7.459456     -7.808589
  H      66.980236     -8.192153     -8.456324
  H      65.763761     -6.943464     -8.436425
  C      65.776752     -8.255050     -6.707731
  H      65.071284     -8.928619     -7.203317
  H      66.504620     -8.901393     -6.204642
  C      65.015462     -7.460079     -5.646464
  H      65.714850     -6.865026     -5.052501
  H      64.338295     -6.751181     -6.132682
  C      64.215258     -8.355175     -4.704606
  H      64.865166     -9.062680     -4.183998
  H      63.693394     -7.766361     -3.947952
  H      63.466243     -8.934151     -5.249800
27
Coordinates from ORCA-job 8 Relaxed Surface Scan Step 3
  C      67.643903     -6.487274     -7.369269
  H      68.181801     -6.915963     -6.515470
  C      67.201919     -5.069933     -6.943297
  H      66.261128     -5.146872     -6.399497
  O      68.541101     -6.291810     -8.429228
  H      68.920263     -7.112019     -8.700569
  C      66.907285     -4.193227     -8.148373
  O      67.468600     -3.187569     -8.412657
  O      65.892102     -4.637615     -8.880151
  H      65.777205     -4.049691     -9.617119
  C      68.250932     -4.405336     -6.054557
  H      67.956964     -3.391287     -5.788695
  H      68.380144     -4.978118     -5.134661
  H      69.208292     -4.351620     -6.570372
  C      66.538556     -7.480053     -7.757435
  H      67.020890     -8.233731     -8.386730
  H      65.798998     -6.993349     -8.391264
  C      65.855132     -8.231488     -6.607549
  H      65.329533     -9.084563     -7.045884
  H      66.618463     -8.665186     -5.951816
  C      64.851626     -7.446572     -5.760213
  H      65.360302     -6.664946     -5.191729
  H      64.145192     -6.933522     -6.419828
  C      64.082997     -8.334517     -4.785975
  H      64.760377     -8.846445     -4.098063
  H      63.382576     -7.749840     -4.186710
  H      63.509446     -9.099260     -5.314936
27
Coordinates from ORCA-job 8 Relaxed Surface Scan Step 4
  C      67.777079     -6.517289     -7.371603
  H      68.430097     -6.955954     -6.608710
  C      67.352239     -5.145479     -6.811363
  H      66.596388     -5.310023     -6.044520
  O      68.522302     -6.237572     -8.525221
  H      68.875459     -7.031355     -8.893584
  C      66.699307     -4.269658     -7.865709
  O      67.104430     -3.220293     -8.227433
  O      65.562624     -4.774828     -8.332333
  H      65.216575     -4.176863     -8.984158
  C      68.542496     -4.416884     -6.188795
  H      68.246414     -3.442238     -5.803979
  H      68.948744     -5.002563     -5.362549
  H      69.326339     -4.262370     -6.927272
  C      66.696520     -7.559641     -7.685931
  H      67.237681     -8.382694     -8.166172
  H      66.011231     -7.168497     -8.435888
  C      65.920602     -8.165450     -6.506724
  H      65.593014     -9.161421     -6.817226
  H      66.599620     -8.331680     -5.662538
  C      64.678920     -7.410936     -6.024343
  H      64.951890     -6.445590     -5.596090
  H      64.039740     -7.187227     -6.882279
  C      63.883844     -8.198040     -4.986718
  H      64.489656     -8.416431     -4.103656
  H      63.006422     -7.639409     -4.655441
  H      63.536092     -9.151419     -5.391817
27
Coordinates from ORCA-job 8 Relaxed Surface Scan Step 5
  C      67.789846     -6.529847     -7.414994
  H      68.485465     -6.991204     -6.705057
  C      67.373594     -5.192455     -6.772090
  H      66.640595     -5.403415     -5.992386
  O      68.472467     -6.193571     -8.591122
  H      68.804841     -6.968360     -9.015310
  C      66.687853     -4.268463     -7.762856
  O      67.067243     -3.190664     -8.064090
  O      65.557602     -4.768977     -8.248324
  H      65.191826     -4.140749     -8.859641
  C      68.576049     -4.487896     -6.145294
  H      68.285962     -3.535248     -5.705129
  H      69.007412     -5.111414     -5.360599
  H      69.339188     -4.292221     -6.895948
  C      66.702246     -7.569926     -7.706985
  H      67.226945     -8.400152     -8.192128
  H      66.005565     -7.176918     -8.445405
  C      65.948044     -8.131032     -6.489406
  H      65.764704     -9.194937     -6.661045
  H      66.589719     -8.087204     -5.601950
  C      64.600009     -7.475715     -6.180058
  H      64.722340     -6.405667     -6.006859
  H      63.957840     -7.558353     -7.061402
  C      63.898795     -8.104290     -4.980144
  H      64.498861     -8.005595     -4.071980
  H      62.934785     -7.627723     -4.792225
  H      63.715930     -9.169808     -5.139623
27
Coordinates from ORCA-job 8 Relaxed Surface Scan Step 6
  C      67.786910     -6.526756     -7.451479
  H      68.504875     -7.011390     -6.779612
  C      67.399886     -5.199828     -6.767282
  H      66.654582     -5.415206     -5.999086
  O      68.426940     -6.174872     -8.646216
  H      68.728756     -6.945288     -9.100222
  C      66.740223     -4.232917     -7.734674
  O      67.151745     -3.160772     -8.012766
  O      65.592574     -4.686657     -8.225534
  H      65.245770     -4.035097     -8.823327
  C      68.614511     -4.541173     -6.115367
  H      68.347051     -3.591078     -5.655835
  H      69.023915     -5.193605     -5.342538
  H      69.388059     -4.348895     -6.856659
  C      66.665114     -7.536868     -7.708805
  H      67.131306     -8.370160     -8.243692
  H      65.939270     -7.105048     -8.395251
  C      65.970036     -8.076943     -6.443740
  H      65.962519     -9.169344     -6.473896
  H      66.556877     -7.820488     -5.555048
  C      64.531206     -7.592705     -6.255470
  H      64.500363     -6.500974     -6.271170
  H      63.936509     -7.915472     -7.115294
  C      63.887175     -8.107168     -4.972696
  H      64.431924     -7.764850     -4.089182
  H      62.856734     -7.758709     -4.880642
  H      63.870895     -9.199541     -4.946568
27
Coordinates from ORCA-job 8 Relaxed Surface Scan Step 7
  C      67.775947     -6.505114     -7.450374
  H      68.481684     -7.013752     -6.784070
  C      67.471538     -5.145454     -6.786097
  H      66.722936     -5.304853     -6.007373
  O      68.404618     -6.211452     -8.666335
  H      68.655677     -7.005743     -9.109887
  C      66.852617     -4.162008     -7.763633
  O      67.334373     -3.135368     -8.094991
  O      65.654150     -4.539936     -8.194952
  H      65.336136     -3.883748     -8.803618
  C      68.728435     -4.542440     -6.161615
  H      68.520175     -3.569979     -5.718218
  H      69.111217     -5.201183     -5.380510
  H      69.501576     -4.407965     -6.915997
  C      66.585478     -7.444288     -7.657662
  H      66.954841     -8.289997     -8.246732
  H      65.843798     -6.945281     -8.277618
  C      65.947368     -7.971343     -6.356691
  H      66.149702     -9.041038     -6.254568
  H      66.419851     -7.506427     -5.485802
  C      64.438181     -7.742637     -6.275174
  H      64.234454     -6.671860     -6.366629
  H      63.957928     -8.214008     -7.138211
  C      63.812599     -8.277259     -4.991807
  H      64.243709     -7.797089     -4.109748
  H      62.735998     -8.097724     -4.972362
  H      63.970742     -9.353854     -4.891375
27
Coordinates from ORCA-job 8 Relaxed Surface Scan Step 8
  C      67.715065     -6.462750     -7.438830
  H      68.377285     -7.000114     -6.752664
  C      67.530162     -5.055772     -6.829052
  H      66.748555     -5.112398     -6.068594
  O      68.359416     -6.271748     -8.666829
  H      68.545219     -7.101296     -9.076453
  C      67.037099     -4.055055     -7.859778
  O      67.627507     -3.094287     -8.212423
  O      65.819184     -4.329455     -8.313394
  H      65.586676     -3.671313     -8.957551
  C      68.823423     -4.554226     -6.189749
  H      68.701372     -3.549077     -5.789225
  H      69.118858     -5.215661     -5.373761
  H      69.625399     -4.526153     -6.925500
  C      66.439621     -7.294176     -7.594977
  H      66.678423     -8.139973     -8.250254
  H      65.690345     -6.704728     -8.119128
  C      65.877821     -7.836485     -6.271198
  H      66.299445     -8.827946     -6.073245
  H      66.198026     -7.207792     -5.434790
  C      64.352820     -7.919246     -6.252006
  H      63.951767     -6.907647     -6.372717
  H      64.008054     -8.489859     -7.120035
  C      63.792482     -8.542324     -4.978432
  H      64.096167     -7.977207     -4.093704
  H      62.701290     -8.566143     -4.996832
  H      64.144247     -9.568974     -4.850930
27
Coordinates from ORCA-job 8 Relaxed Surface Scan Step 9
  C      67.666894     -6.432914     -7.431042
  H      68.310409     -7.002421     -6.752764
  C      67.588255     -5.008017     -6.840692
  H      66.817312     -4.999033     -6.067556
  O      68.293392     -6.301096     -8.676536
  H      68.417225     -7.146553     -9.076881
  C      67.147312     -3.992189     -7.880273
  O      67.791162     -3.072400     -8.248596
  O      65.912255     -4.199342     -8.322369
  H      65.715044     -3.537059     -8.973966
  C      68.922758     -4.586071     -6.229262
  H      68.876072     -3.568555     -5.844580
  H      69.185193     -5.252942     -5.406445
  H      69.713052     -4.625052     -6.977151
  C      66.338683     -7.184796     -7.545156
  H      66.503480     -8.044218     -8.206238
  H      65.603976     -6.552900     -8.040530
  C      65.794793     -7.701817     -6.210854
  H      66.381257     -8.571397     -5.892168
  H      65.924904     -6.948296     -5.428271
  C      64.316428     -8.079440     -6.275600
  H      63.740152     -7.182134     -6.522583
  H      64.155421     -8.781916     -7.099401
  C      63.785750     -8.685011     -4.980742
  H      63.905115     -7.994454     -4.142290
  H      62.724074     -8.925207     -5.062651
  H      64.315359     -9.606573     -4.727455
27
Coordinates from ORCA-job 8 Relaxed Surface Scan Step 10
  C      67.668606     -6.434846     -7.431215
  H      68.319598     -7.036014     -6.787252
  C      67.658465     -5.020507     -6.813597
  H      66.960868     -5.018348     -5.974304
  O      68.253921     -6.298579     -8.696667
  H      68.333584     -7.139522     -9.117417
  C      67.140601     -3.978283     -7.788881
  O      67.761872     -3.061372     -8.200495
  O      65.865980     -4.159065     -8.116515
  H      65.617924     -3.478962     -8.731398
  C      69.047665     -4.627219     -6.314497
  H      69.047009     -3.618711     -5.903990
  H      69.373361     -5.315692     -5.533135
  H      69.768067     -4.656618     -7.129913
  C      66.323546     -7.158265     -7.526157
  H      66.495900     -8.067248     -8.115641
  H      65.621212     -6.550280     -8.093439
  C      65.713535     -7.570832     -6.187580
  H      66.386631     -8.271151     -5.679671
  H      65.620987     -6.703683     -5.528023
  C      64.335341     -8.212885     -6.337194
  H      63.661933     -7.493989     -6.813799
  H      64.403229     -9.065406     -7.020213
  C      63.733560     -8.671815     -5.013226
  H      63.617430     -7.835562     -4.319621
  H      62.748487     -9.118429     -5.160656
  H      64.366413     -9.418521     -4.527555
27
Coordinates from ORCA-job 8 Relaxed Surface Scan Step 11
  C      67.699692     -6.464246     -7.444710
  H      68.352392     -7.099393     -6.834432
  C      67.729972     -5.077680     -6.771653
  H      67.140184     -5.137519     -5.855314
  O      68.261213     -6.294646     -8.716462
  H      68.306022     -7.120806     -9.170683
  C      67.073384     -4.006720     -7.623116
  O      67.619582     -3.063519     -8.079002
  O      65.767926     -4.200017     -7.781683
  H      65.426104     -3.498335     -8.322953
  C      69.159567     -4.668774     -6.420695
  H      69.180599     -3.688200     -5.947299
  H      69.596261     -5.391888     -5.730010
  H      69.775789     -4.623361     -7.315956
  C      66.346619     -7.171917     -7.548576
  H      66.542009     -8.135340     -8.035305
  H      65.695686     -6.613332     -8.219237
  C      65.635237     -7.435210     -6.223796
  H      66.327471     -7.910017     -5.518857
  H      65.334693     -6.486915     -5.771792
  C      64.396646     -8.316519     -6.378842
  H      63.713267     -7.849261     -7.094354
  H      64.686818     -9.275717     -6.818879
  C      63.662440     -8.564882     -5.065457
  H      63.321073     -7.627852     -4.619208
  H      62.786236     -9.198274     -5.216092
  H      64.308844     -9.061463     -4.337688
27
Coordinates from ORCA-job 8 Relaxed Surface Scan Step 12
  C      67.657650     -6.459278     -7.477201
  H      68.284865     -7.137726     -6.884393
  C      67.736231     -5.093146     -6.768008
  H      67.137735     -5.154645     -5.857141
  O      68.225284     -6.278809     -8.744093
  H      68.234820     -7.093240     -9.221105
  C      67.125238     -3.977366     -7.595616
  O      67.707929     -3.041108     -8.019518
  O      65.815781     -4.121384     -7.772427
  H      65.503862     -3.393974     -8.297510
  C      69.177455     -4.746270     -6.398688
  H      69.230981     -3.781128     -5.896966
  H      69.584037     -5.504276     -5.727308
  H      69.800102     -4.697368     -7.289362
  C      66.279409     -7.114249     -7.591576
  H      66.443280     -8.081622     -8.078745
  H      65.652532     -6.534592     -8.267159
  C      65.555652     -7.341792     -6.264218
  H      66.276389     -7.627038     -5.490157
  H      65.108564     -6.401808     -5.931247
  C      64.470339     -8.415128     -6.343491
  H      63.780560     -8.179533     -7.159264
  H      64.932295     -9.371160     -6.609216
  C      63.684081     -8.577432     -5.046992
  H      63.173056     -7.650784     -4.775362
  H      62.927016     -9.358499     -5.138793
  H      64.340584     -8.848448     -4.216499
27
Coordinates from ORCA-job 8 Relaxed Surface Scan Step 13
  C      67.599836     -6.448710     -7.495780
  H      68.186756     -7.164036     -6.903192
  C      67.729799     -5.093812     -6.772532
  H      67.101746     -5.128523     -5.880222
  O      68.190376     -6.282012     -8.753769
  H      68.167135     -7.090818     -9.239782
  C      67.200979     -3.943487     -7.609450
  O      67.842933     -3.035427     -8.008446
  O      65.891802     -4.019329     -7.825587
  H      65.633329     -3.273963     -8.354480
  C      69.175808     -4.824241     -6.360313
  H      69.265916     -3.864919     -5.852751
  H      69.522837     -5.604924     -5.681534
  H      69.825297     -4.805125     -7.232933
  C      66.193401     -7.035979     -7.628075
  H      66.313969     -7.994288     -8.142481
  H      65.595144     -6.412741     -8.290013
  C      65.464033     -7.261061     -6.298577
  H      66.191164     -7.377118     -5.488427
  H      64.884479     -6.368390     -6.049712
  C      64.546205     -8.484038     -6.301319
  H      63.869122     -8.439490     -7.159214
  H      65.154667     -9.381646     -6.450999
  C      63.732879     -8.633212     -5.020273
  H      63.077161     -7.773200     -4.865393
  H      63.106215     -9.526521     -5.051309
  H      64.382737     -8.714792     -4.145489
27
Coordinates from ORCA-job 8 Relaxed Surface Scan Step 14
  C      67.524667     -6.432732     -7.500958
  H      68.060704     -7.175259     -6.894274
  C      67.711236     -5.080893     -6.782903
  H      67.039858     -5.060591     -5.922233
  O      68.147450     -6.303792     -8.747680
  H      68.095202     -7.113921     -9.229117
  C      67.301866     -3.909056     -7.656596
  O      68.023063     -3.052606     -8.033808
  O      66.002161     -3.897532     -7.933235
  H      65.821354     -3.144171     -8.482669
  C      69.151090     -4.903053     -6.305019
  H      69.284135     -3.942693     -5.809071
  H      69.410971     -5.692750     -5.598276
  H      69.840538     -4.945008     -7.145846
  C      66.089918     -6.940609     -7.655063
  H      66.158835     -7.879420     -8.212848
  H      65.527249     -6.258490     -8.288335
  C      65.353743     -7.187382     -6.327676
  H      66.060848     -7.146772     -5.493425
  H      64.644985     -6.375178     -6.147370
  C      64.621077     -8.528397     -6.267037
  H      63.955474     -8.626925     -7.129462
  H      65.354045     -9.335765     -6.365119
  C      63.821824     -8.724413     -4.983644
  H      63.048437     -7.959936     -4.878437
  H      63.329198     -9.698476     -4.969260
  H      64.465797     -8.665983     -4.102690
27
Coordinates from ORCA-job 8 Relaxed Surface Scan Step 15
  C      67.433787     -6.412668     -7.500801
  H      67.917618     -7.174845     -6.877317
  C      67.681388     -5.063000     -6.795114
  H      66.962672     -4.969177     -5.978579
  O      68.086339     -6.331673     -8.736536
  H      68.005200     -7.145130     -9.208121
  C      67.419415     -3.884923     -7.716487
  O      68.227010     -3.092803     -8.057599
  O      66.146141     -3.782958     -8.081542
  H      66.061234     -3.032634     -8.657668
  C      69.099491     -4.984525     -6.233263
  H      69.280870     -4.022627     -5.756167
  H      69.252213     -5.769824     -5.491221
  H      69.832023     -5.107427     -7.028868
  C      65.973370     -6.835107     -7.674195
  H      65.986444     -7.743818     -8.284737
  H      65.449217     -6.086654     -8.263025
  C      65.231350     -7.122420     -6.354537
  H      65.891044     -6.935339     -5.501786
  H      64.401165     -6.421520     -6.238118
  C      64.700975     -8.552265     -6.243245
  H      64.044079     -8.763507     -7.092386
  H      65.538821     -9.251705     -6.331853
  C      63.951889     -8.821750     -4.943082
  H      63.084103     -8.165492     -4.843234
  H      63.594757     -9.852342     -4.898581
  H      64.593112     -8.655670     -4.073989
27
Coordinates from ORCA-job 8 Relaxed Surface Scan Step 16
  C      67.346473     -6.399510     -7.501384
  H      67.783522     -7.178194     -6.866359
  C      67.651595     -5.057760     -6.801343
  H      66.901647     -4.899003     -6.023789
  O      68.022391     -6.359928     -8.726942
  H      67.912696     -7.173282     -9.192762
  C      67.518499     -3.881774     -7.753094
  O      68.394231     -3.148807     -8.056477
  O      66.278155     -3.705044     -8.193838
  H      66.276470     -2.962987     -8.786658
  C      69.042287     -5.065858     -6.169953
  H      69.268901     -4.108351     -5.703678
  H      69.102312     -5.842690     -5.406012
  H      69.802203     -5.258467     -6.925355
  C      65.866557     -6.740053     -7.694125
  H      65.829523     -7.613769     -8.353847
  H      65.382895     -5.930906     -8.235034
  C      65.111499     -7.069081     -6.391841
  H      65.690086     -6.740001     -5.523418
  H      64.178899     -6.501197     -6.353062
  C      64.790805     -8.554751     -6.225058
  H      64.162453     -8.877540     -7.061128
  H      65.715641     -9.136594     -6.298452
  C      64.090573     -8.881004     -4.910675
  H      63.145336     -8.340280     -4.821560
  H      63.870631     -9.947457     -4.833560
  H      64.709446     -8.607516     -4.052646
27
Coordinates from ORCA-job 8 Relaxed Surface Scan Step 17
  C      67.276126     -6.398454     -7.512986
  H      67.677202     -7.197306     -6.880952
  C      67.628175     -5.075135     -6.799076
  H      66.866492     -4.880312     -6.041429
  O      67.967076     -6.376101     -8.731110
  H      67.832985     -7.181857     -9.203626
  C      67.579840     -3.892063     -7.750410
  O      68.498477     -3.200936     -8.023792
  O      66.363995     -3.656365     -8.229597
  H      66.416453     -2.915296     -8.821316
  C      68.999125     -5.153434     -6.130400
  H      69.261422     -4.208746     -5.656836
  H      68.999414     -5.932571     -5.366424
  H      69.768414     -5.384025     -6.865563
  C      65.784160     -6.671623     -7.725347
  H      65.711093     -7.511153     -8.425767
  H      65.335873     -5.816233     -8.224231
  C      65.007492     -7.033636     -6.448249
  H      65.470307     -6.564061     -5.575148
  H      64.000161     -6.614198     -6.506332
  C      64.893742     -8.537939     -6.197899
  H      64.338055     -8.988773     -7.026387
  H      65.889614     -8.992600     -6.215116
  C      64.204545     -8.883068     -4.882223
  H      63.194441     -8.468187     -4.844718
  H      64.124016     -9.963537     -4.749062
  H      64.757033     -8.484194     -4.028054
27
Coordinates from ORCA-job 8 Relaxed Surface Scan Step 18
  C      67.236477     -6.412699     -7.551654
  H      67.625612     -7.241434     -6.952831
  C      67.618633     -5.124222     -6.790858
  H      66.865115     -4.941843     -6.022278
  O      67.924704     -6.358909     -8.771121
  H      67.774794     -7.144690     -9.271691
  C      67.591512     -3.905532     -7.696969
  O      68.523521     -3.224234     -7.948949
  O      66.378859     -3.626050     -8.160375
  H      66.444536     -2.864680     -8.724351
  C      68.990493     -5.256394     -6.132503
  H      69.274892     -4.335792     -5.625452
  H      68.977501     -6.063286     -5.398004
  H      69.751519     -5.475565     -6.879644
  C      65.738928     -6.646896     -7.775500
  H      65.648240     -7.465078     -8.499148
  H      65.313274     -5.766989     -8.251743
  C      64.933361     -7.019743     -6.523738
  H      65.244627     -6.405184     -5.674000
  H      63.884179     -6.766839     -6.697145
  C      65.013809     -8.496593     -6.133376
  H      64.610661     -9.098311     -6.954194
  H      66.058557     -8.800160     -6.017636
  C      64.253755     -8.822266     -4.851690
  H      63.196493     -8.561936     -4.942234
  H      64.313990     -9.886262     -4.615309
  H      64.657682     -8.270215     -3.999659
27
Coordinates from ORCA-job 8 Relaxed Surface Scan Step 19
  C      67.303563     -6.512059     -7.663445
  H      67.720928     -7.396313     -7.173352
  C      67.662741     -5.326740     -6.745303
  H      67.010410     -5.368283     -5.871333
  O      67.979980     -6.289519     -8.870721
  H      67.836858     -7.007396     -9.466576
  C      67.397997     -3.983690     -7.400720
  O      68.219224     -3.174417     -7.658711
  O      66.107084     -3.762900     -7.625779
  H      66.016889     -2.910816     -8.035623
  C      69.117916     -5.410395     -6.287025
  H      69.373576     -4.571627     -5.641176
  H      69.282087     -6.334072     -5.729655
  H      69.790090     -5.393493     -7.142165
  C      65.818105     -6.770865     -7.940735
  H      65.777218     -7.658726     -8.583942
  H      65.431953     -5.942925     -8.531412
  C      64.899765     -7.007085     -6.739020
  H      64.963372     -6.163445     -6.047439
  H      63.869573     -7.002673     -7.105943
  C      65.133092     -8.314975     -5.982014
  H      65.019601     -9.152199     -6.678558
  H      66.161382     -8.362953     -5.612009
  C      64.174894     -8.504749     -4.810199
  H      63.135042     -8.502596     -5.145489
  H      64.356705     -9.452175     -4.299379
  H      64.285679     -7.704718     -4.074330
27
Coordinates from ORCA-job 8 Relaxed Surface Scan Step 20
  C      67.259358     -6.527290     -7.708162
  H      67.653837     -7.440097     -7.250643
  C      67.641732     -5.383668     -6.747572
  H      66.980157     -5.436851     -5.880943
  O      67.940466     -6.276669     -8.907069
  H      67.776739     -6.966436     -9.530212
  C      67.415935     -4.013897     -7.360845
  O      68.258751     -3.216470     -7.583608
  O      66.133176     -3.755138     -7.591982
  H      66.067822     -2.888573     -7.975289
  C      69.090398     -5.519146     -6.281812
  H      69.361471     -4.710185     -5.604940
  H      69.227597     -6.465691     -5.756430
  H      69.769594     -5.488886     -7.131072
  C      65.768752     -6.745699     -7.985932
  H      65.704527     -7.613946     -8.653273
  H      65.389879     -5.896555     -8.551188
  C      64.860424     -6.994269     -6.779747
  H      64.796782     -6.088049     -6.171606
  H      63.848578     -7.159231     -7.160891
  C      65.248377     -8.180250     -5.894789
  H      65.390408     -9.068731     -6.518788
  H      66.213368     -7.992641     -5.415666
  C      64.213516     -8.480712     -4.814861
  H      63.243516     -8.726004     -5.253524
  H      64.521018     -9.325399     -4.195561
  H      64.069549     -7.621320     -4.155645
27
Coordinates from ORCA-job 8 Relaxed Surface Scan Step 21
  C      67.191329     -6.523335     -7.719478
  H      67.542598     -7.455398     -7.261942
  C      67.615070     -5.392908     -6.759777
  H      66.926050     -5.391260     -5.913201
  O      67.884116     -6.299694     -8.916732
  H      67.693303     -6.981097     -9.541293
  C      67.489399     -4.021384     -7.397832
  O      68.384710     -3.278739     -7.604661
  O      66.231855     -3.689744     -7.670265
  H      66.230482     -2.827131     -8.067766
  C      69.039404     -5.607520     -6.251308
  H      69.342241     -4.804411     -5.581013
  H      69.104565     -6.551090     -5.707054
  H      69.741252     -5.634075     -7.082348
  C      65.693113     -6.681792     -7.989721
  H      65.594201     -7.506385     -8.705834
  H      65.322765     -5.795771     -8.501088
  C      64.807600     -6.980367     -6.774834
  H      64.621821     -6.058816     -6.215817
  H      63.828901     -7.290953     -7.150981
  C      65.337295     -8.054454     -5.818822
  H      65.738969     -8.898112     -6.389273
  H      66.184113     -7.659639     -5.251216
  C      64.281059     -8.553454     -4.838124
  H      63.443231     -9.019538     -5.361729
  H      64.696176     -9.292690     -4.150541
  H      63.880107     -7.732048     -4.239401
27
Coordinates from ORCA-job 8 Relaxed Surface Scan Step 22
  C      67.115934     -6.502926     -7.744260
  H      67.439637     -7.458909     -7.314364
  C      67.584002     -5.397422     -6.774140
  H      66.859032     -5.324346     -5.961579
  O      67.800741     -6.277412     -8.946233
  H      67.592789     -6.947802     -9.577056
  C      67.592925     -4.032220     -7.438933
  O      68.550108     -3.359274     -7.603309
  O      66.380331     -3.616626     -7.787329
  H      66.464874     -2.766237     -8.201739
  C      68.963843     -5.711783     -6.200376
  H      69.306868     -4.916916     -5.539882
  H      68.930191     -6.641605     -5.630324
  H      69.692858     -5.819190     -7.001651
  C      65.608756     -6.603942     -7.991114
  H      65.481160     -7.338003     -8.794127
  H      65.244880     -5.663870     -8.399524
  C      64.738507     -7.019695     -6.788488
  H      64.349712     -6.130351     -6.284739
  H      63.854782     -7.527618     -7.183329
  C      65.401297     -7.923827     -5.739374
  H      66.041352     -8.669225     -6.219118
  H      66.078262     -7.330374     -5.119918
  C      64.390491     -8.616766     -4.831678
  H      63.740242     -9.285207     -5.400690
  H      64.889493     -9.211443     -4.064267
  H      63.752660     -7.888814     -4.324512
27
Coordinates from ORCA-job 8 Relaxed Surface Scan Step 23
  C      67.078581     -6.474281     -7.798693
  H      67.424411     -7.451215     -7.448069
  C      67.597824     -5.423832     -6.790712
  H      66.873714     -5.330540     -5.980852
  O      67.711917     -6.174694     -9.013933
  H      67.493300     -6.816377     -9.670233
  C      67.681435     -4.044149     -7.420990
  O      68.672971     -3.415978     -7.556831
  O      66.495497     -3.559624     -7.770556
  H      66.627918     -2.707089     -8.167568
  C      68.956201     -5.823509     -6.219837
  H      69.339282     -5.062673     -5.541646
  H      68.870907     -6.762396     -5.670478
  H      69.681725     -5.951925     -7.021701
  C      65.558280     -6.542312     -7.989192