21
Coordinates from ORCA-job 9 Relaxed Surface Scan Step 1
  C      67.987239     -6.816486     -6.861507
  H      68.144285     -7.505048     -6.022609
  C      67.441080     -5.490822     -6.228153
  H      67.357702     -5.654277     -5.156647
  O      69.221901     -6.527880     -7.454677
  H      69.609266     -7.322143     -7.784692
  C      66.061909     -5.072738     -6.700454
  O      65.778374     -4.757328     -7.805713
  O      65.171371     -5.036926     -5.716819
  H      64.346117     -4.724551     -6.069336
  C      68.369530     -4.283660     -6.437016
  H      67.955795     -3.410926     -5.927445
  H      69.355626     -4.486476     -6.028135
  H      68.476842     -4.052405     -7.493691
  C      67.086039     -7.540555     -7.866802
  H      67.714792     -8.294596     -8.351555
  H      66.777037     -6.849351     -8.648867
  C      65.879803     -8.245656     -7.251883
  H      65.207965     -7.560829     -6.734026
  H      65.296375     -8.748315     -8.024351
  H      66.192675     -9.002877     -6.528691
21
Coordinates from ORCA-job 9 Relaxed Surface Scan Step 2
  C      67.972277     -6.827959     -6.773885
  H      68.011809     -7.516961     -5.924314
  C      67.472855     -5.453501     -6.205442
  H      67.471486     -5.536164     -5.119798
  O      69.276895     -6.629505     -7.242540
  H      69.644659     -7.454921     -7.513478
  C      66.051832     -5.095211     -6.595553
  O      65.714642     -4.708716     -7.662525
  O      65.191146     -5.211834     -5.591929
  H      64.332862     -4.942136     -5.897758
  C      68.365156     -4.267882     -6.599558
  H      67.971479     -3.349400     -6.159882
  H      69.378304     -4.418004     -6.239492
  H      68.396356     -4.143952     -7.679554
  C      67.116143     -7.487880     -7.862790
  H      67.744545     -8.247034     -8.337535
  H      66.873641     -6.760460     -8.636697
  C      65.856248     -8.188284     -7.357211
  H      65.166485     -7.517744     -6.847124
  H      65.313896     -8.638547     -8.189664
  H      66.109010     -8.987750     -6.656341
21
Coordinates from ORCA-job 9 Relaxed Surface Scan Step 3
  C      67.948816     -6.831706     -6.687386
  H      67.872377     -7.511845     -5.834183
  C      67.498232     -5.416685     -6.192197
  H      67.577492     -5.416623     -5.104754
  O      69.303360     -6.719450     -7.026189
  H      69.648263     -7.572370     -7.235313
  C      66.044463     -5.108579     -6.489816
  O      65.641078     -4.654144     -7.505740
  O      65.236441     -5.371652     -5.470228
  H      64.349223     -5.139796     -5.719016
  C      68.351128     -4.277315     -6.761568
  H      67.981719     -3.318615     -6.394145
  H      69.386831     -4.391465     -6.458243
  H      68.307145     -4.258748     -7.848768
  C      67.149774     -7.432172     -7.854985
  H      67.784571     -8.185402     -8.327225
  H      66.965838     -6.669241     -8.612052
  C      65.848319     -8.131487     -7.463783
  H      65.128465     -7.472015     -6.983956
  H      65.365349     -8.547597     -8.348978
  H      66.042840     -8.956935     -6.774544
21
Coordinates from ORCA-job 9 Relaxed Surface Scan Step 4
  C      67.919237     -6.829139     -6.606917
  H      67.723768     -7.489325     -5.756577
  C      67.518621     -5.382245     -6.189539
  H      67.687920     -5.302077     -5.114267
  O      69.304398     -6.797235     -6.813598
  H      69.622503     -7.672590     -6.964797
  C      66.040707     -5.116690     -6.378113
  O      65.558587     -4.594477     -7.324523
  O      65.307810     -5.525063     -5.349328
  H      64.395683     -5.327881     -5.527388
  C      68.321923     -4.303474     -6.919065
  H      67.985120     -3.313597     -6.609454
  H      69.378131     -4.402269     -6.689542
  H      68.191792     -4.372401     -7.997873
  C      67.192171     -7.385127     -7.844762
  H      67.842111     -8.135935     -8.297581
  H      67.075315     -6.599088     -8.592571
  C      65.850913     -8.066999     -7.574805
  H      65.093908     -7.393912     -7.179260
  H      65.454649     -8.486686     -8.500558
  H      65.966461     -8.887636     -6.862552
21
Coordinates from ORCA-job 9 Relaxed Surface Scan Step 5
  C      67.933168     -6.838760     -6.525164
  H      67.677820     -7.460611     -5.662497
  C      67.520355     -5.378271     -6.204385
  H      67.826393     -5.204126     -5.169044
  O      69.330514     -6.811575     -6.636532
  H      69.659727     -7.689835     -6.740087
  C      66.022304     -5.178168     -6.176919
  O      65.409793     -4.488311     -6.918632
  O      65.436992     -5.852426     -5.194916
  H      64.502061     -5.687744     -5.225964
  C      68.179508     -4.342822     -7.113314
  H      67.886840     -3.337886     -6.810976
  H      69.260379     -4.428449     -7.053157
  H      67.874400     -4.469214     -8.151330
  C      67.322460     -7.462109     -7.790576
  H      67.854564     -8.400505     -7.961289
  H      67.553555     -6.827313     -8.648385
  C      65.832096     -7.804649     -7.770812
  H      65.193895     -6.927687     -7.854037
  H      65.597686     -8.446734     -8.621296
  H      65.557213     -8.346650     -6.863758
21
Coordinates from ORCA-job 9 Relaxed Surface Scan Step 6
  C      67.913079     -6.854695     -6.460131
  H      67.557238     -7.443482     -5.610297
  C      67.499637     -5.384628     -6.224837
  H      67.923810     -5.129532     -5.249169
  O      69.315564     -6.847230     -6.440349
  H      69.642507     -7.728784     -6.520923
  C      66.011510     -5.196400     -6.026622
  O      65.329548     -4.441777     -6.631947
  O      65.524499     -5.952807     -5.050206
  H      64.596024     -5.773041     -4.962027
  C      68.039421     -4.414651     -7.272403
  H      67.837491     -3.386369     -6.975529
  H      69.113756     -4.545162     -7.376555
  H      67.568497     -4.567284     -8.242952
  C      67.415515     -7.500533     -7.759644
  H      67.853066     -8.501914     -7.801446
  H      67.836059     -6.954171     -8.605952
  C      65.905333     -7.652805     -7.929511
  H      65.404368     -6.698281     -8.084892
  H      65.693602     -8.270674     -8.803474
  H      65.451201     -8.139623     -7.064205
21
Coordinates from ORCA-job 9 Relaxed Surface Scan Step 7
  C      67.866221     -6.865019     -6.433033
  H      67.389124     -7.428958     -5.628054
  C      67.482767     -5.383008     -6.245152
  H      68.008083     -5.097542     -5.329576
  O      69.259468     -6.901044     -6.274117
  H      69.571137     -7.788058     -6.354938
  C      66.020651     -5.167601     -5.913325
  O      65.311657     -4.367205     -6.420676
  O      65.592354     -5.952117     -4.931214
  H      64.683889     -5.740672     -4.752182
  C      67.944812     -4.462838     -7.370683
  H      67.805031     -3.419858     -7.090428
  H      69.001852     -4.631290     -7.568717
  H      67.382175     -4.628131     -8.288953
  C      67.477135     -7.506992     -7.766052
  H      67.906755     -8.515233     -7.763431
  H      67.973331     -6.973632     -8.578797
  C      65.979447     -7.613202     -8.037952
  H      65.515315     -6.635433     -8.172164
  H      65.799794     -8.183267     -8.950587
  H      65.460728     -8.122743     -7.223040
21
Coordinates from ORCA-job 9 Relaxed Surface Scan Step 8
  C      67.811082     -6.871574     -6.423368
  H      67.228251     -7.411035     -5.676424
  C      67.467997     -5.375548     -6.266470
  H      68.087128     -5.077811     -5.416280
  O      69.182123     -6.958065     -6.134405
  H      69.472870     -7.852919     -6.205683
  C      66.054043     -5.099194     -5.791490
  O      65.385659     -4.182876     -6.129508
  O      65.627493     -5.960691     -4.875118
  H      64.764059     -5.687008     -4.589321
  C      67.855563     -4.490374     -7.446870
  H      67.748485     -3.439552     -7.184310
  H      68.894884     -4.676733     -7.714724
  H      67.230191     -4.672443     -8.320684
  C      67.527763     -7.517594     -7.778009
  H      67.968239     -8.522767     -7.729728
  H      68.075877     -6.988908     -8.559685
  C      66.050151     -7.626257     -8.139224
  H      65.585276     -6.644749     -8.251425
  H      65.922060     -8.155044     -9.084760
  H      65.492531     -8.172702     -7.375585
21
Coordinates from ORCA-job 9 Relaxed Surface Scan Step 9
  C      67.825126     -6.863412     -6.399498
  H      67.263289     -7.395044     -5.629908
  C      67.503403     -5.363187     -6.249710
  H      68.201564     -5.028864     -5.481846
  O      69.204810     -6.950276     -6.140737
  H      69.491166     -7.846891     -6.207678
  C      66.150540     -5.017304     -5.653274
  O      65.816413     -3.910505     -5.397064
  O      65.363849     -6.051912     -5.390206
  H      64.564998     -5.724515     -4.993262
  C      67.790150     -4.500472     -7.482847
  H      67.689960     -3.447359     -7.227719
  H      68.809458     -4.679450     -7.822572
  H      67.108752     -4.713426     -8.307611
  C      67.526791     -7.531874     -7.742334
  H      67.977836     -8.531212     -7.685867
  H      68.068381     -7.008535     -8.532483
  C      66.054335     -7.674649     -8.111807
  H      65.565972     -6.706801     -8.232951
  H      65.952309     -8.213417     -9.055190
  H      65.502625     -8.224738     -7.348508
21
Coordinates from ORCA-job 9 Relaxed Surface Scan Step 10
  C      67.841649     -6.860310     -6.378084
  H      67.288876     -7.392019     -5.596709
  C      67.543687     -5.350807     -6.221094
  H      68.296823     -4.998672     -5.521223
  O      69.222261     -6.961402     -6.133064
  H      69.500863     -7.859670     -6.210942
  C      66.238957     -5.013545     -5.530651
  O      66.102768     -4.089859     -4.802801
  O      65.230407     -5.826950     -5.814923
  H      64.460934     -5.529102     -5.343715
  C      67.700548     -4.510005     -7.494888
  H      67.612795     -3.451078     -7.252014
  H      68.687916     -4.677107     -7.923864
  H      66.950902     -4.749084     -8.249668
  C      67.534021     -7.535581     -7.719435
  H      67.997327     -8.527721     -7.662668
  H      68.070719     -7.008376     -8.510304
  C      66.069900     -7.718820     -8.103742
  H      65.558161     -6.770911     -8.258734
  H      66.002291     -8.291141     -9.030669
  H      65.519923     -8.261686     -7.333878
21
Coordinates from ORCA-job 9 Relaxed Surface Scan Step 11
  C      67.913464     -6.851279     -6.399819
  H      67.380274     -7.382271     -5.610421
  C      67.491902     -5.367469     -6.279994
  H      68.211020     -4.969594     -5.564573
  O      69.296676     -6.862668     -6.168326
  H      69.620215     -7.749105     -6.177903
  C      66.178629     -5.247750     -5.527641
  O      66.007394     -5.697548     -4.443888
  O      65.233080     -4.573663     -6.163799
  H      64.466581     -4.528091     -5.604269
  C      67.599057     -4.539895     -7.557849
  H      67.429213     -3.484555     -7.346014
  H      68.602738     -4.642920     -7.969842
  H      66.879258     -4.841046     -8.317408
  C      67.604539     -7.570836     -7.711077
  H      68.134902     -8.531133     -7.655703
  H      68.051164     -7.031660     -8.548110
  C      66.121682     -7.825411     -7.961433
  H      65.554667     -6.895752     -8.034978
  H      65.974203     -8.372929     -8.893397
  H      65.681067     -8.418269     -7.156627
21
Coordinates from ORCA-job 9 Relaxed Surface Scan Step 12
  C      67.848104     -6.863851     -6.388754
  H      67.197878     -7.372367     -5.675491
  C      67.492473     -5.352275     -6.308237
  H      68.291769     -4.944536     -5.692629
  O      69.189534     -6.955170     -5.989198
  H      69.444110     -7.860740     -5.913004
  C      66.271661     -5.160378     -5.426193
  O      66.215650     -5.541683     -4.304985
  O      65.266826     -4.515652     -5.999261
  H      64.565461     -4.425615     -5.364701
  C      67.481294     -4.569972     -7.619704
  H      67.320352     -3.510105     -7.424389
  H      68.446252     -4.673445     -8.115483
  H      66.703099     -4.896925     -8.306615
  C      67.659100     -7.570689     -7.730515
  H      68.195101     -8.524688     -7.640166
  H      68.163167     -7.020744     -8.526390
  C      66.203736     -7.848058     -8.095562
  H      65.613427     -6.932631     -8.159454
  H      66.133497     -8.352019     -9.060595
  H      65.729235     -8.492302     -7.351745
21
Coordinates from ORCA-job 9 Relaxed Surface Scan Step 13
  C      67.496433     -6.860720     -6.393407
  H      66.569701     -7.329937     -6.052383
  C      67.272470     -5.344188     -6.507444
  H      68.261236     -4.887681     -6.471191
  O      68.458948     -6.983785     -5.375651
  H      68.492805     -7.874162     -5.065234
  C      66.496784     -4.869340     -5.296627
  O      65.432015     -5.290211     -4.988865
  O      67.084348     -3.884108     -4.640980
  H      66.524437     -3.624590     -3.918650
  C      66.526076     -4.844690     -7.749381
  H      66.412997     -3.760457     -7.699123
  H      67.076714     -5.071444     -8.660545
  H      65.530026     -5.280792     -7.817646
  C      67.969482     -7.548953     -7.682386
  H      68.561296     -8.416569     -7.386726
  H      68.661772     -6.894040     -8.218371
  C      66.862987     -8.047616     -8.610686
  H      66.246156     -7.246193     -9.012803
  H      67.294847     -8.583723     -9.457639
  H      66.200197     -8.740647     -8.087331
21
Coordinates from ORCA-job 9 Relaxed Surface Scan Step 14
  C      67.420579     -6.873141     -6.416637
  H      66.446329     -7.310887     -6.182565
  C      67.251677     -5.354467     -6.519378
  H      68.251528     -4.922575     -6.561883
  O      68.283938     -7.046557     -5.320995
  H      68.212870     -7.924351     -4.982755
  C      66.594740     -4.855194     -5.248783
  O      65.617270     -5.322496     -4.769554
  O      67.185555     -3.784242     -4.745210
  H      66.705508     -3.508826     -3.973102
  C      66.431871     -4.845866     -7.709996
  H      66.315512     -3.762857     -7.647763
  H      66.930126     -5.065070     -8.652902
  H      65.436459     -5.290800     -7.725648
  C      67.994788     -7.551460     -7.670028
  H      68.580916     -8.405657     -7.324899
  H      68.710878     -6.883778     -8.157335
  C      66.963343     -8.061278     -8.674753
  H      66.353167     -7.265057     -9.098739
  H      67.458810     -8.570035     -9.503512
  H      66.285860     -8.779248     -8.206632
21
Coordinates from ORCA-job 9 Relaxed Surface Scan Step 15
  C      67.418712     -6.973697     -6.449590
  H      66.427264     -7.398471     -6.272123
  C      67.305996     -5.439674     -6.472888
  H      68.325254     -5.046378     -6.506002
  O      68.262844     -7.346367     -5.394981
  H      67.793241     -7.251032     -4.580115
  C      66.710218     -4.940456     -5.172932
  O      66.140258     -5.609656     -4.374979
  O      66.867427     -3.638441     -5.004156
  H      66.457428     -3.383159     -4.186068
  C      66.510552     -4.845262     -7.643207
  H      66.461037     -3.761100     -7.556259
  H      66.985339     -5.078981     -8.593755
  H      65.489678     -5.232169     -7.666010
  C      67.991295     -7.568469     -7.743942
  H      68.598359     -8.422321     -7.449235
  H      68.678878     -6.858239     -8.211985
  C      66.951199     -8.045869     -8.755749
  H      66.296722     -7.247486     -9.105292
  H      67.441815     -8.473523     -9.632003
  H      66.318208     -8.823094     -8.321798
21
Coordinates from ORCA-job 9 Relaxed Surface Scan Step 16
  C      67.333031     -6.977482     -6.482055
  H      66.295753     -7.332529     -6.431126
  C      67.292740     -5.437255     -6.469713
  H      68.316731     -5.067618     -6.573116
  O      68.060087     -7.456566     -5.390823
  H      67.598728     -7.236662     -4.594851
  C      66.821112     -4.917312     -5.124351
  O      66.463527     -5.583791     -4.207145
  O      66.850021     -3.598643     -5.046841
  H      66.553968     -3.335908     -4.183106
  C      66.450547     -4.828209     -7.598272
  H      66.442525     -3.742243     -7.532921
  H      66.860601     -5.100250     -8.568878
  H      65.417499     -5.180443     -7.556254
  C      67.994075     -7.564156     -7.740047
  H      68.616185     -8.384174     -7.380301
  H      68.678115     -6.835225     -8.183611
  C      67.031374     -8.092184     -8.800306
  H      66.373081     -7.316386     -9.194199
  H      67.582690     -8.512982     -9.643167
  H      66.399337     -8.883828     -8.391987
21
Coordinates from ORCA-job 9 Relaxed Surface Scan Step 17
  C      67.182187     -6.950206     -6.590162
  H      66.124763     -7.200881     -6.761712
  C      67.245557     -5.408398     -6.477368
  H      68.257542     -5.059461     -6.695677
  O      67.659788     -7.606074     -5.457947
  H      67.188064     -7.308402     -4.693599
  C      66.951034     -4.897995     -5.080071
  O      66.616293     -5.550143     -4.143329
  O      67.124652     -3.592224     -4.979759
  H      66.930723     -3.324810     -4.088843
  C      66.310200     -4.738186     -7.493935
  H      66.440093     -3.657598     -7.496806
  H      66.522897     -5.107018     -8.497174
  H      65.264122     -4.958780     -7.271644
  C      68.015810     -7.492045     -7.766997
  H      68.753870     -8.144797     -7.294992
  H      68.572890     -6.689028     -8.256325
  C      67.220752     -8.270567     -8.809448
  H      66.472496     -7.644833     -9.302042
  H      67.879086     -8.668877     -9.583652
  H      66.698906     -9.113521     -8.351590
21
Coordinates from ORCA-job 9 Relaxed Surface Scan Step 18
  C      66.820279     -6.659488     -7.100270
  H      65.955728     -6.768055     -7.762950
  C      66.964635     -5.139324     -6.770816
  H      67.850672     -4.760211     -7.278419
  O      66.608697     -7.426924     -5.948256
  H      65.778626     -7.213042     -5.550431
  C      67.220934     -4.973927     -5.289075
  O      66.387171     -4.725719     -4.484159
  O      68.491867     -5.138399     -4.967097
  H      68.577424     -5.086229     -4.022506
  C      65.742297     -4.331407     -7.201611
  H      65.861255     -3.273203     -6.968013
  H      65.590944     -4.425498     -8.278090
  H      64.842921     -4.680779     -6.694137
  C      68.039171     -7.213425     -7.826424
  H      68.927084     -7.044764     -7.213625
  H      68.176526     -6.625546     -8.738450
  C      67.920799     -8.691148     -8.179616
  H      67.050628     -8.878862     -8.813951
  H      68.805389     -9.028440     -8.722870
  H      67.818678     -9.299453     -7.282304
21
Coordinates from ORCA-job 9 Relaxed Surface Scan Step 19
  C      66.804330     -6.621869     -7.192180
  H      66.065294     -6.692297     -7.998198
  C      66.924146     -5.116235     -6.825232
  H      67.725821     -4.682050     -7.423697
  O      66.368731     -7.375397     -6.095656
  H      65.521349     -7.082004     -5.798541
  C      67.335448     -4.973858     -5.374482
  O      66.608369     -4.654152     -4.496365
  O      68.615341     -5.240200     -5.170109
  H      68.793099     -5.181686     -4.238767
  C      65.625653     -4.355049     -7.088627
  H      65.712439     -3.308652     -6.797899
  H      65.376709     -4.395560     -8.149866
  H      64.794528     -4.778020     -6.523103
  C      68.102979     -7.232917     -7.703817
  H      68.878142     -7.122906     -6.945224
  H      68.427290     -6.648934     -8.569524
  C      67.963287     -8.699141     -8.097852
  H      67.207081     -8.831828     -8.875975
  H      68.908255     -9.083904     -8.485777
  H      67.673435     -9.307183     -7.242178
21
Coordinates from ORCA-job 9 Relaxed Surface Scan Step 20
  C      66.794402     -6.611480     -7.242872
  H      66.189041     -6.645865     -8.157245
  C      66.899556     -5.114028     -6.855485
  H      67.619981     -4.648075     -7.529912
  O      66.175375     -7.352118     -6.231780
  H      65.320928     -7.006701     -6.028188
  C      67.433556     -4.961255     -5.445120
  O      66.771349     -4.727814     -4.492808
  O      68.747923     -5.108170     -5.367487
  H      69.007374     -5.033078     -4.456551
  C      65.556930     -4.395047     -6.991975
  H      65.645814     -3.341965     -6.726368
  H      65.199855     -4.457194     -8.020819
  H      64.800904     -4.823400     -6.333649
  C      68.127392     -7.284258     -7.547520
  H      68.730246     -7.299891     -6.639802
  H      68.667196     -6.672760     -8.274850
  C      67.965106     -8.702758     -8.083625
  H      67.388495     -8.714634     -9.012253
  H      68.939203     -9.148151     -8.293874
  H      67.451099     -9.335202     -7.360888
21
Coordinates from ORCA-job 9 Relaxed Surface Scan Step 21
  C      66.770268     -6.601950     -7.297246
  H      66.316962     -6.590305     -8.297044
  C      66.880349     -5.116180     -6.872659
  H      67.531035     -4.627141     -7.599162
  O      65.972771     -7.334897     -6.416939
  H      65.094533     -6.992818     -6.384442
  C      67.534648     -4.970348     -5.512912
  O      66.959034     -4.901559     -4.482347
  O      68.858224     -4.914395     -5.582656
  H      69.204733     -4.849668     -4.700389
  C      65.519133     -4.419418     -6.878340
  H      65.626199     -3.350859     -6.690093
  H      65.033020     -4.541114     -7.848131
  H      64.867582     -4.814056     -6.099632
  C      68.105286     -7.330146     -7.398285
  H      68.516256     -7.436500     -6.392921
  H      68.807161     -6.713161     -7.963292
  C      67.980446     -8.705795     -8.044436
  H      67.608686     -8.631432     -9.069666
  H      68.950897     -9.204030     -8.080535
  H      67.294504     -9.338070     -7.481941
21
Coordinates from ORCA-job 9 Relaxed Surface Scan Step 22
  C      66.750449     -6.584614     -7.360364
  H      66.444554     -6.537450     -8.413878
  C      66.867775     -5.110388     -6.890836
  H      67.448058     -4.585090     -7.649795
  O      65.810415     -7.303086     -6.621252
  H      64.937752     -6.981245     -6.775097
  C      67.633288     -4.994319     -5.587087
  O      67.175446     -5.133991     -4.506013
  O      68.916259     -4.709051     -5.773476
  H      69.343846     -4.674506     -4.925636
  C      65.500356     -4.438921     -6.761462
  H      65.605892     -3.370131     -6.571927
  H      64.928422     -4.554256     -7.685266
  H      64.935666     -4.864152     -5.933559
  C      68.058799     -7.361498     -7.280778
  H      68.292291     -7.506548     -6.222485
  H      68.862559     -6.760451     -7.710200
  C      67.990764     -8.718375     -7.972740
  H      67.792499     -8.608594     -9.042067
  H      68.935807     -9.253742     -7.865590
  H      67.200827     -9.333436     -7.543561
21
Coordinates from ORCA-job 9 Relaxed Surface Scan Step 23
  C      66.749029     -6.567352     -7.422271
  H      66.601073     -6.493990     -8.507479
  C      66.855773     -5.100270     -6.905236
  H      67.348668     -4.524704     -7.687424
  O      65.687788     -7.265291     -6.843051
  H      64.859173     -6.950026     -7.163314
  C      67.727767     -4.988961     -5.668634
  O      67.401870     -5.265198     -4.565854
  O      68.944928     -4.536883     -5.944968
  H      69.445811     -4.507594     -5.137990
  C      65.486150     -4.475378     -6.636611
  H      65.583858     -3.417138     -6.390962
  H      64.851565     -4.545607     -7.523618
  H      64.992602     -4.971377     -5.803707
  C      68.000623     -7.399451     -7.171615
  H      68.055380     -7.572326     -6.093245
  H      68.882673     -6.824431     -7.460663
  C      67.989068     -8.737697     -7.901684
  H      67.962731     -8.598378     -8.985567
  H      68.885252     -9.313726     -7.664679
  H      67.119943     -9.328065     -7.614499
21
Coordinates from ORCA-job 9 Relaxed Surface Scan Step 24
  C      66.774291     -6.537234     -7.490264
  H      66.809810     -6.432239     -8.581093
  C      66.835014     -5.078461     -6.910584
  H      67.220862     -4.438877     -7.702156
  O      65.608561     -7.212915     -7.120278
  H      64.861424     -6.882186     -7.590077
  C      67.805768     -4.944381     -5.752037
  O      67.576996     -5.212779     -4.622993
  O      68.987732     -4.473565     -6.131689
  H      69.552534     -4.426871     -5.369050
  C      65.463649     -4.545602     -6.492085
  H      65.540195     -3.507270     -6.166829
  H      64.766472     -4.570342     -7.332320
  H      65.052340     -5.132109     -5.674639
  C      67.936445     -7.430427     -7.071601
  H      67.829801     -7.616321     -6.000149
  H      68.876090     -6.895985     -7.223245
  C      67.973542     -8.756946     -7.822085
  H      68.105468     -8.602156     -8.896179
  H      68.804300     -9.372624     -7.472923
  H      67.050431     -9.314552     -7.670795
