30
Coordinates from ORCA-job 2 Relaxed Surface Scan Step 1
  C      -2.217429     -1.601239      0.400907
  C      -0.177354     -0.531390     -0.172335
  C      -0.626688      0.848243      0.358571
  C      -2.143344      0.888918      0.141892
  C      -2.835416     -0.276805      0.834626
  H      -2.467841     -1.749361     -0.657392
  H      -0.123324      1.646569     -0.191272
  H      -2.330822      0.795076     -0.932301
  H      -2.695758     -0.154618      1.911535
  H      -0.542196     -0.538773     -1.208673
  O      -0.826168     -1.538277      0.544819
  O      -4.188717     -0.293875      0.508065
  H      -4.564516      0.541974      0.740593
  O      -2.742261      2.055828      0.623586
  H      -2.506594      2.798403      0.091015
  O      -0.462843      1.060432      1.750262
  C       0.699669      1.233407      2.357200
  O       1.749929      1.051737      1.847193
  C       0.500122      1.654259      3.785641
  H      -0.085305      2.572634      3.818017
  H      -0.064898      0.885089      4.311941
  H       1.464556      1.801621      4.262532
  C       1.298251     -0.880288     -0.235090
  H       1.878027     -0.074719     -0.682768
  H       1.702024     -1.083837      0.749980
  H       1.405310     -1.776895     -0.846896
  C      -2.725076     -2.782796      1.199804
  H      -3.807213     -2.862199      1.110509
  H      -2.268109     -3.702449      0.834295
  H      -2.463351     -2.666687      2.252639
30
Coordinates from ORCA-job 2 Relaxed Surface Scan Step 2
  C      -2.250365     -1.608452      0.367474
  C      -0.181745     -0.557543     -0.156179
  C      -0.634121      0.818934      0.370943
  C      -2.149016      0.879522      0.163688
  C      -2.852916     -0.289396      0.836593
  H      -2.492021     -1.720990     -0.697372
  H      -0.124502      1.617284     -0.171225
  H      -2.341533      0.804529     -0.911540
  H      -2.704780     -0.194942      1.915315
  H      -0.495260     -0.563144     -1.209469
  O      -0.860376     -1.568080      0.528472
  O      -4.207969     -0.282579      0.517477
  H      -4.570842      0.554828      0.764523
  O      -2.728552      2.047535      0.666410
  H      -2.488146      2.794019      0.141369
  O      -0.445427      1.000355      1.764103
  C       0.716702      1.341762      2.295383
  O       1.734967      1.353981      1.694137
  C       0.570682      1.672569      3.752797
  H      -0.156784      2.474449      3.874436
  H       0.190318      0.799316      4.282675
  H       1.533176      1.966965      4.160451
  C       1.295501     -0.900185     -0.128378
  H       1.894130     -0.119555     -0.593447
  H       1.649694     -1.042292      0.888118
  H       1.436308     -1.833835     -0.673702
  C      -2.781036     -2.807279      1.124684
  H      -3.862964     -2.870697      1.021715
  H      -2.330987     -3.720935      0.736209
  H      -2.529472     -2.726158      2.183237
30
Coordinates from ORCA-job 2 Relaxed Surface Scan Step 3
  C      -2.280288     -1.615873      0.334997
  C      -0.184353     -0.590962     -0.143084
  C      -0.637140      0.782733      0.377849
  C      -2.150244      0.870569      0.186565
  C      -2.864802     -0.301628      0.840311
  H      -2.514887     -1.692462     -0.734751
  H      -0.123434      1.577181     -0.163719
  H      -2.352429      0.817946     -0.888608
  H      -2.705637     -0.235405      1.919831
  H      -0.445955     -0.596733     -1.210503
  O      -0.891197     -1.603591      0.509279
  O      -4.222274     -0.270976      0.533257
  H      -4.572160      0.566070      0.799499
  O      -2.703450      2.039196      0.716323
  H      -2.460979      2.789743      0.197913
  O      -0.411998      0.942047      1.768277
  C       0.718005      1.446537      2.235454
  O       1.668497      1.651315      1.560989
  C       0.636801      1.691659      3.714191
  H      -0.196584      2.360295      3.927203
  H       0.441668      0.748416      4.224327
  H       1.569412      2.121691      4.067062
  C       1.291167     -0.918207     -0.023633
  H       1.908079     -0.151211     -0.487207
  H       1.584868     -1.012987      1.019316
  H       1.473914     -1.874463     -0.513729
  C      -2.835910     -2.828602      1.051200
  H      -3.917586     -2.872790      0.936988
  H      -2.395562     -3.736790      0.639461
  H      -2.592876     -2.782734      2.113837
30
Coordinates from ORCA-job 2 Relaxed Surface Scan Step 4
  C      -2.302921     -1.622660      0.310873
  C      -0.184180     -0.630651     -0.135963
  C      -0.629579      0.742272      0.380298
  C      -2.140451      0.863049      0.205992
  C      -2.866746     -0.309503      0.844812
  H      -2.533339     -1.670489     -0.761545
  H      -0.111480      1.529668     -0.164651
  H      -2.354042      0.832751     -0.868047
  H      -2.696832     -0.266559      1.924131
  H      -0.407190     -0.636129     -1.211990
  O      -0.914251     -1.641457      0.492379
  O      -4.226404     -0.255855      0.550697
  H      -4.562729      0.581440      0.833143
  O      -2.662385      2.033153      0.762818
  H      -2.417029      2.786670      0.249864
  O      -0.365437      0.884598      1.765074
  C       0.696379      1.550057      2.190453
  O       1.546896      1.949626      1.470661
  C       0.681035      1.707456      3.682986
  H      -0.230353      2.223525      3.983202
  H       0.671356      0.722406      4.149343
  H       1.556324      2.264876      4.002857
  C       1.287113     -0.943362      0.051153
  H       1.915485     -0.176984     -0.399527
  H       1.529179     -1.014906      1.110355
  H       1.507210     -1.906305     -0.408895
  C      -2.884073     -2.841353      0.996179
  H      -3.965517     -2.864513      0.874627
  H      -2.456374     -3.747337      0.566632
  H      -2.647001     -2.823498      2.060986
30
Coordinates from ORCA-job 2 Relaxed Surface Scan Step 5
  C      -2.316882     -1.627498      0.297235
  C      -0.178899     -0.679299     -0.144417
  C      -0.598931      0.696741      0.375667
  C      -2.107758      0.856633      0.225163
  C      -2.849340     -0.310533      0.855782
  H      -2.552075     -1.652506     -0.774981
  H      -0.073270      1.474987     -0.172868
  H      -2.339275      0.850401     -0.845650
  H      -2.664891     -0.287343      1.933458
  H      -0.389203     -0.679338     -1.222903
  O      -0.927931     -1.682142      0.472979
  O      -4.211464     -0.227363      0.580107
  H      -4.528794      0.611691      0.878830
  O      -2.588733      2.029692      0.812075
  H      -2.332219      2.785977      0.308319
  O      -0.295921      0.817567      1.753950
  C       0.637324      1.658980      2.171422
  O       1.351293      2.257900      1.441481
  C       0.673426      1.733813      3.669795
  H      -0.299047      2.060259      4.037193
  H       0.864683      0.741606      4.077971
  H       1.449047      2.425408      3.984850
  C       1.287924     -0.996706      0.066982
  H       1.923506     -0.231169     -0.377948
  H       1.508217     -1.062768      1.131531
  H       1.520499     -1.959830     -0.386148
  C      -2.923376     -2.843801      0.964687
  H      -4.005317     -2.841220      0.845985
  H      -2.516741     -3.751888      0.519420
  H      -2.683191     -2.848267      2.028927
30
Coordinates from ORCA-job 2 Relaxed Surface Scan Step 6
  C      -2.318862     -1.627883      0.293649
  C      -0.163873     -0.739872     -0.177468
  C      -0.532035      0.643083      0.358306
  C      -2.039616      0.851467      0.255632
  C      -2.799463     -0.304965      0.884094
  H      -2.573128     -1.627897     -0.774530
  H       0.000477      1.409733     -0.198716
  H      -2.305637      0.880869     -0.806875
  H      -2.588011     -0.306022      1.957072
  H      -0.392651     -0.725599     -1.252044
  O      -0.929327     -1.727140      0.443913
  O      -4.164979     -0.177907      0.644050
  H      -4.451513      0.664126      0.964717
  O      -2.460115      2.024348      0.888940
  H      -2.154847      2.786605      0.421684
  O      -0.178325      0.734501      1.726819
  C       0.517101      1.770811      2.172165
  O       1.030429      2.565108      1.459803
  C       0.578081      1.786591      3.670860
  H      -0.427958      1.939904      4.061815
  H       0.932757      0.823922      4.036724
  H       1.233723      2.585614      4.003894
  C       1.298011     -1.093815      0.007826
  H       1.942307     -0.347227     -0.458541
  H       1.537550     -1.155293      1.068109
  H       1.499348     -2.064051     -0.444926
  C      -2.950740     -2.836101      0.952171
  H      -4.033890     -2.799508      0.851796
  H      -2.578763     -3.748513      0.485954
  H      -2.693389     -2.864904      2.012004
30
Coordinates from ORCA-job 2 Relaxed Surface Scan Step 7
  C      -2.322224     -1.625332      0.290726
  C      -0.152956     -0.783705     -0.183818
  C      -0.485906      0.610094      0.345432
  C      -1.991396      0.851814      0.263994
  C      -2.771376     -0.295026      0.887048
  H      -2.574570     -1.616210     -0.777785
  H       0.050222      1.358735     -0.233025
  H      -2.265460      0.902103     -0.796063
  H      -2.553764     -0.306918      1.959057
  H      -0.388590     -0.766448     -1.256719
  O      -0.934985     -1.753381      0.442825
  O      -4.135143     -0.137583      0.656476
  H      -4.400886      0.712693      0.973640
  O      -2.385276      2.019425      0.920550
  H      -1.935467      2.774484      0.571203
  O      -0.086883      0.703579      1.702127
  C       0.359921      1.858036      2.173468
  O       0.583475      2.797335      1.485918
  C       0.555840      1.810001      3.659434
  H      -0.417012      1.695308      4.137929
  H       1.161557      0.945290      3.926695
  H       1.029409      2.726993      3.997039
  C       1.302762     -1.167801     -0.008401
  H       1.958456     -0.439210     -0.487890
  H       1.551067     -1.225724      1.049733
  H       1.478812     -2.144669     -0.457330
  C      -2.980704     -2.821897      0.944280
  H      -4.062624     -2.761614      0.842354
  H      -2.627681     -3.740540      0.475539
  H      -2.725956     -2.859850      2.004461
30
Coordinates from ORCA-job 2 Relaxed Surface Scan Step 8
  C      -2.338691     -1.631850      0.273360
  C      -0.158705     -0.792953     -0.137475
  C      -0.501890      0.607624      0.369385
  C      -2.004837      0.851203      0.235725
  C      -2.805493     -0.294789      0.837599
  H      -2.551828     -1.636426     -0.803537
  H       0.041099      1.344915     -0.220714
  H      -2.226714      0.885283     -0.837565
  H      -2.624672     -0.296126      1.917163
  H      -0.368318     -0.783232     -1.215539
  O      -0.956818     -1.755940      0.476737
  O      -4.160155     -0.138409      0.560148
  H      -4.431268      0.721421      0.846193
  O      -2.445611      2.017424      0.856255
  H      -1.857252      2.740315      0.690708
  O      -0.084826      0.724432      1.719610
  C       0.250676      1.907635      2.205042
  O       0.175211      2.917792      1.586841
  C       0.722519      1.808087      3.625716
  H      -0.097770      1.447708      4.246659
  H       1.534078      1.085165      3.697323
  H       1.049834      2.783659      3.972142
  C       1.292098     -1.178177      0.074238
  H       1.960660     -0.450995     -0.389710
  H       1.514412     -1.236735      1.137927
  H       1.477630     -2.155010     -0.370829
  C      -3.019635     -2.820499      0.917978
  H      -4.097197     -2.761343      0.776838
  H      -2.650659     -3.745029      0.473632
  H      -2.803209     -2.845167      1.987045
30
Coordinates from ORCA-job 2 Relaxed Surface Scan Step 9
  C      -2.354779     -1.634661      0.265473
  C      -0.167465     -0.787913     -0.087656
  C      -0.531237      0.617333      0.396255
  C      -2.025872      0.851002      0.175273
  C      -2.846130     -0.284641      0.774551
  H      -2.531661     -1.670397     -0.817219
  H       0.029827      1.351103     -0.185283
  H      -2.169889      0.826607     -0.911346
  H      -2.710012     -0.256074      1.861052
  H      -0.347619     -0.790366     -1.170562
  O      -0.978482     -1.744887      0.517195
  O      -4.188241     -0.140067      0.439055
  H      -4.463586      0.735357      0.669566
  O      -2.532276      2.041321      0.683555
  H      -1.849918      2.684825      0.821932
  O      -0.121055      0.738932      1.751714
  C       0.153757      1.917844      2.279785
  O      -0.178586      2.952602      1.801163
  C       0.903613      1.784579      3.572347
  H       0.344308      1.140800      4.250237
  H       1.866445      1.309197      3.385054
  H       1.049339      2.765084      4.015130
  C       1.278368     -1.166819      0.166008
  H       1.957378     -0.439336     -0.282392
  H       1.471660     -1.222110      1.235337
  H       1.478946     -2.144176     -0.271232
  C      -3.049966     -2.809090      0.920461
  H      -4.122716     -2.758961      0.743426
  H      -2.663442     -3.743796      0.513796
  H      -2.868046     -2.803306      1.996223
30
Coordinates from ORCA-job 2 Relaxed Surface Scan Step 10
  C      -2.330767     -1.588724      0.338541
  C      -0.142583     -0.780672     -0.144960
  C      -0.486680      0.642437      0.309084
  C      -1.975358      0.865722      0.036850
  C      -2.804560     -0.196436      0.752112
  H      -2.559492     -1.703056     -0.728590
  H       0.094212      1.375215     -0.254320
  H      -2.089571      0.686893     -1.035145
  H      -2.666880     -0.084767      1.834428
  H      -0.357374     -0.825167     -1.219703
  O      -0.944531     -1.697761      0.532651
  O      -4.145994     -0.065513      0.412279
  H      -4.376767      0.851377      0.462354
  O      -2.480431      2.136897      0.266558
  H      -1.995605      2.580097      0.953518
  O      -0.075312      0.713736      1.676580
  C      -0.032916      1.811849      2.400611
  O      -0.638375      2.803377      2.149652
  C       0.844444      1.646962      3.606375
  H       0.558351      0.745410      4.146096
  H       1.877763      1.523269      3.280909
  H       0.758564      2.519688      4.246410
  C       1.305822     -1.169702      0.075973
  H       1.977249     -0.473393     -0.429760
  H       1.538604     -1.180688      1.138411
  H       1.476145     -2.168337     -0.324777
  C      -3.001917     -2.703633      1.111734
  H      -4.081931     -2.651957      0.985262
  H      -2.646376     -3.670836      0.756037
  H      -2.765068     -2.622303      2.173725
30
Coordinates from ORCA-job 2 Relaxed Surface Scan Step 11
  C      -2.308227     -1.547386      0.389399
  C      -0.122169     -0.790304     -0.177412
  C      -0.431142      0.654270      0.233986
  C      -1.923990      0.886291     -0.019789
  C      -2.765166     -0.132271      0.744225
  H      -2.558060     -1.707201     -0.666948
  H       0.140909      1.358995     -0.371656
  H      -2.047444      0.659397     -1.080657
  H      -2.631524      0.024260      1.821564
  H      -0.372566     -0.873867     -1.241909
  O      -0.920137     -1.662748      0.562823
  O      -4.105053     -0.002960      0.396434
  H      -4.319795      0.918705      0.370104
  O      -2.399277      2.177965      0.129907
  H      -2.108869      2.532475      0.963526
  O       0.053097      0.760372      1.578192
  C      -0.164822      1.700943      2.467491
  O      -1.019332      2.524746      2.396448
  C       0.784959      1.587087      3.624507
  H       0.743099      0.578053      4.032171
  H       1.801811      1.759241      3.271215
  H       0.526016      2.316756      4.385541
  C       1.325055     -1.200271      0.010880
  H       1.991711     -0.535980     -0.541812
  H       1.594396     -1.176683      1.064135
  H       1.462356     -2.215920     -0.358815
  C      -2.976800     -2.618139      1.224767
  H      -4.058524     -2.558344      1.117382
  H      -2.640193     -3.604734      0.905924
  H      -2.717653     -2.492763      2.277273
30
Coordinates from ORCA-job 2 Relaxed Surface Scan Step 12
  C      -2.295876     -1.519236      0.417847
  C      -0.112580     -0.796310     -0.168490
  C      -0.397969      0.668662      0.177247
  C      -1.895692      0.910372     -0.039978
  C      -2.757982     -0.095050      0.720928
  H      -2.522467     -1.715047     -0.637566
  H       0.150461      1.331007     -0.492680
  H      -2.033711      0.690975     -1.100700
  H      -2.662164      0.086824      1.796137
  H      -0.383336     -0.926520     -1.223519
  O      -0.911082     -1.622353      0.623098
  O      -4.086847      0.025495      0.324228
  H      -4.316335      0.943398      0.309229
  O      -2.339145      2.212501      0.120973
  H      -2.172917      2.482356      1.017335
  O       0.171911      0.876257      1.477532
  C      -0.228463      1.591943      2.499501
  O      -1.263233      2.174640      2.572172
  C       0.786832      1.567953      3.605995
  H       0.978289      0.536620      3.899856
  H       1.724746      1.989241      3.244681
  H       0.419799      2.140508      4.452243
  C       1.332571     -1.216775      0.011943
  H       1.997795     -0.582304     -0.576053
  H       1.621018     -1.154942      1.058497
  H       1.451510     -2.247685     -0.319981
  C      -2.980784     -2.562936      1.274049
  H      -4.060171     -2.506794      1.143527
  H      -2.638468     -3.559257      0.993834
  H      -2.743044     -2.403561      2.327010
30
Coordinates from ORCA-job 2 Relaxed Surface Scan Step 13
  C      -2.301416     -1.509365      0.413402
  C      -0.113652     -0.798221     -0.128603
  C      -0.390454      0.679794      0.154623
  C      -1.892832      0.933391     -0.027150
  C      -2.783876     -0.087075      0.683491
  H      -2.477831     -1.722279     -0.648225
  H       0.131669      1.296952     -0.574929
  H      -2.044067      0.767252     -1.095909
  H      -2.750377      0.094000      1.759477
  H      -0.377571     -0.963458     -1.180880
  O      -0.925657     -1.592872      0.680445
  O      -4.090552      0.023999      0.209344
  H      -4.354375      0.931389      0.248423
  O      -2.306468      2.236164      0.207902
  H      -2.217966      2.412570      1.136783
  O       0.246664      1.009084      1.397240
  C      -0.221430      1.499515      2.518447
  O      -1.352158      1.811721      2.716860
  C       0.861861      1.608590      3.553511
  H       1.221290      0.609267      3.799411
  H       1.701435      2.173631      3.150964
  H       0.470103      2.091202      4.443708
  C       1.327751     -1.220380      0.076071
  H       2.001846     -0.605917     -0.522579
  H       1.608564     -1.129510      1.122763
  H       1.444246     -2.261150     -0.224292
  C      -3.015007     -2.548006      1.252302
  H      -4.088212     -2.500399      1.075425
  H      -2.655352     -3.545355      0.998505
  H      -2.823513     -2.374548      2.312365
30
Coordinates from ORCA-job 2 Relaxed Surface Scan Step 14
  C      -2.323071     -1.506870      0.387444
  C      -0.119992     -0.813872     -0.082110
  C      -0.387253      0.673149      0.154696
  C      -1.892073      0.951585      0.003332
  C      -2.813677     -0.086918      0.649825
  H      -2.453495     -1.714012     -0.682083
  H       0.117541      1.247317     -0.619460
  H      -2.059443      0.859422     -1.071754
  H      -2.833599      0.075091      1.726827
  H      -0.356314     -0.995410     -1.138751
  O      -0.960189     -1.592127      0.712017
  O      -4.096312      0.032070      0.110361
  H      -4.389055      0.926095      0.203960
  O      -2.270217      2.246118      0.335842
  H      -2.231989      2.332794      1.279418
  O       0.289643      1.105894      1.341025
  C      -0.172203      1.405457      2.531495
  O      -1.321959      1.441864      2.830775
  C       0.947999      1.704040      3.486836
  H       1.562680      0.812684      3.611352
  H       1.581463      2.488528      3.074672
  H       0.539381      2.010671      4.444892
  C       1.312510     -1.241621      0.168735
  H       2.008225     -0.636433     -0.413971
  H       1.563266     -1.142454      1.222701
  H       1.432335     -2.286229     -0.116323
  C      -3.073127     -2.549519      1.188953
  H      -4.137836     -2.498834      0.967186
  H      -2.704804     -3.545980      0.944047
  H      -2.925769     -2.382516      2.256955
30
Coordinates from ORCA-job 2 Relaxed Surface Scan Step 15
  C      -2.346310     -1.503131      0.356352
  C      -0.125017     -0.837780     -0.046921
  C      -0.379889      0.656872      0.159366
  C      -1.885481      0.966062      0.039615
  C      -2.830807     -0.084055      0.633077
  H      -2.448995     -1.688868     -0.720450
  H       0.111909      1.193595     -0.648464
  H      -2.073760      0.947561     -1.035291
  H      -2.880074      0.052313      1.711611
  H      -0.327380     -1.023244     -1.110403
  O      -0.995339     -1.610160      0.716978
  O      -4.097463      0.055963      0.058640
  H      -4.407028      0.937907      0.198295
  O      -2.225789      2.246325      0.465001
  H      -2.223531      2.258961      1.411977
  O       0.320243      1.168049      1.296531
  C      -0.101248      1.307917      2.532641
  O      -1.203200      1.068273      2.903279
  C       0.994494      1.819328      3.423758
  H       1.814533      1.101678      3.437824
  H       1.381937      2.755828      3.024036
  H       0.610419      1.966364      4.428672
  C       1.295822     -1.273760      0.252502
  H       2.014823     -0.676509     -0.309447
  H       1.513691     -1.172240      1.314064
  H       1.417382     -2.320934     -0.021898
  C      -3.129798     -2.552206      1.116742
  H      -4.187548     -2.485186      0.867748
  H      -2.765929     -3.547866      0.862038
  H      -3.008005     -2.407073      2.191023
30
Coordinates from ORCA-job 2 Relaxed Surface Scan Step 16
  C      -2.367146     -1.494453      0.329283
  C      -0.126310     -0.865589     -0.025783
  C      -0.368549      0.636712      0.156814
  C      -1.873118      0.974821      0.067559
  C      -2.829903     -0.075287      0.640951
  H      -2.463269     -1.646858     -0.753901
  H       0.111327      1.140159     -0.678626
  H      -2.086611      1.005623     -1.001790
  H      -2.870863      0.034987      1.723366
  H      -0.291823     -1.049856     -1.096324
  O      -1.024649     -1.639032      0.700389
  O      -4.097731      0.095358      0.076615
  H      -4.399236      0.975309      0.242782
  O      -2.177888      2.244768      0.553725
  H      -2.196818      2.217303      1.499145
  O       0.342096      1.212680      1.252058
  C      -0.017464      1.206879      2.517705
  O      -1.005455      0.696493      2.927951
  C       0.987499      1.926340      3.370913
  H       1.956197      1.435323      3.281427
  H       1.102244      2.948963      3.012720
  H       0.660266      1.921923      4.406307
  C       1.281069     -1.309307      0.322989
  H       2.023206     -0.716623     -0.212893
  H       1.461644     -1.211376      1.392342
  H       1.405828     -2.357425      0.053965
  C      -3.178150     -2.549738      1.051710
  H      -4.231959     -2.457507      0.794520
  H      -2.828580     -3.543932      0.772489
  H      -3.063190     -2.436675      2.130486
30
Coordinates from ORCA-job 2 Relaxed Surface Scan Step 17
  C      -2.384801     -1.472336      0.351122
  C      -0.130215     -0.829222     -0.035946
  C      -0.412923      0.669139      0.132634
  C      -1.906330      0.949879     -0.053258
  C      -2.821178     -0.040850      0.658933
  H      -2.543839     -1.637159     -0.723419
  H       0.112927      1.186185     -0.666074
  H      -2.100314      0.820685     -1.119517
  H      -2.767291      0.116663      1.736415
  H      -0.255358     -1.000012     -1.114869
  O      -1.026163     -1.637540      0.650152
  O      -4.128174      0.122486      0.196855
  H      -4.378524      1.028096      0.301876
  O      -2.251500      2.270174      0.236861
  H      -1.842895      2.543366      1.043238
  O       0.152407      1.308854      1.281346
  C       0.007323      0.980197      2.560580
  O      -0.723280      0.147028      2.963984
  C       0.903447      1.823944      3.424536
  H       1.943244      1.625265      3.164857
  H       0.715562      2.880660      3.236841
  H       0.729051      1.588771      4.470228
  C       1.277316     -1.242648      0.350119
  H       2.020763     -0.623802     -0.154032
  H       1.420627     -1.167060      1.426840
  H       1.436937     -2.282298      0.067382
  C      -3.163211     -2.508646      1.133886
  H      -4.228610     -2.413760      0.931376
  H      -2.834488     -3.509744      0.853955
  H      -2.987845     -2.376330      2.201992
30
Coordinates from ORCA-job 2 Relaxed Surface Scan Step 18
  C      -2.400168     -1.460894      0.347023
  C      -0.130359     -0.863982     -0.057392
  C      -0.389272      0.637094      0.128812
  C      -1.873983      0.942500     -0.066311
  C      -2.774937     -0.021429      0.695746
  H      -2.598155     -1.598512     -0.725030
  H       0.160594      1.150764     -0.656261
  H      -2.087736      0.792060     -1.126220
  H      -2.640257      0.120469      1.771370
  H      -0.260991     -1.001008     -1.140935
  O      -1.040633     -1.676472      0.603223
  O      -4.103120      0.190822      0.330811
  H      -4.299515      1.111678      0.419555
  O      -2.193777      2.271319      0.212599
  H      -1.661102      2.584320      0.927282
  O       0.119152      1.298461      1.296063
  C       0.090110      0.894971      2.564015
  O      -0.370534     -0.123826      2.935278
  C       0.746558      1.914615      3.454247
  H       1.785397      2.042723      3.150478
  H       0.252064      2.880066      3.347750
  H       0.696806      1.581100      4.486414
  C       1.272043     -1.314315      0.306029
  H       2.021903     -0.694682     -0.188417
  H       1.422766     -1.275647      1.382385
  H       1.409600     -2.346787     -0.012783
  C      -3.188313     -2.486768      1.133796
  H      -4.255432     -2.359380      0.960738
  H      -2.894394     -3.491549      0.829698
  H      -2.981652     -2.377727      2.198937
30
Coordinates from ORCA-job 2 Relaxed Surface Scan Step 19
  C      -2.399170     -1.439134      0.374036
  C      -0.128052     -0.889935     -0.073068
  C      -0.349626      0.614726      0.127487
  C      -1.824310      0.943862     -0.096790
  C      -2.730792      0.015430      0.701927
  H      -2.617735     -1.591553     -0.691783
  H       0.234329      1.126377     -0.634641
  H      -2.040877      0.771308     -1.152413
  H      -2.557810      0.172659      1.773106
  H      -0.309147     -1.006345     -1.152012
  O      -1.040976     -1.678477      0.614035
  O      -4.062532      0.257258      0.378989
  H      -4.221945      1.188577      0.425043
  O      -2.123124      2.282558      0.153819
  H      -1.586046      2.593582      0.866769
  O       0.085051      1.275318      1.325989
  C       0.197337      0.820386      2.572763
  O       0.054850     -0.301766      2.898643
  C       0.556631      1.943841      3.507309
  H       1.465758      2.433499      3.159893
  H      -0.238938      2.689586      3.514408
  H       0.699620      1.549768      4.508985
  C       1.275392     -1.392441      0.209531
  H       2.014983     -0.789077     -0.320174
  H       1.487397     -1.377027      1.274265
  H       1.359098     -2.421854     -0.137558
  C      -3.198084     -2.431430      1.192193
  H      -4.264650     -2.283732      1.032348
  H      -2.930425     -3.447896      0.903519
  H      -2.973545     -2.308085      2.252279
30
Coordinates from ORCA-job 2 Relaxed Surface Scan Step 20
  C      -2.387566     -1.414849      0.419287
  C      -0.126926     -0.893807     -0.067640
  C      -0.319021      0.613831      0.137538
  C      -1.782790      0.949695     -0.145942
  C      -2.714244      0.056621      0.666229
  H      -2.600975     -1.623750     -0.637467
  H       0.308017      1.132125     -0.585901
  H      -1.975207      0.751662     -1.201169
  H      -2.561990      0.265583      1.733031
  H      -0.375289     -1.006071     -1.133302
  O      -1.030061     -1.642857      0.677471
  O      -4.037272      0.291471      0.307441
  H      -4.188732      1.225317      0.299271
  O      -2.077198      2.296417      0.060697
  H      -1.611207      2.596895      0.826904
  O       0.004443      1.253760      1.381133
  C       0.317062      0.772819      2.582777
  O       0.498733     -0.360398      2.842265
  C       0.417975      1.898544      3.577368
  H       1.113376      2.654036      3.213395
  H      -0.557197      2.372578      3.695415
  H       0.751820      1.507437      4.533793
  C       1.274962     -1.447402      0.110777
  H       1.989413     -0.866627     -0.476290
  H       1.572878     -1.445995      1.152792
  H       1.292296     -2.475188     -0.251562
  C      -3.195031     -2.358078      1.285453
  H      -4.260088     -2.213226      1.113089
  H      -2.931870     -3.389876      1.052900
  H      -2.975648     -2.180684      2.339143
30
Coordinates from ORCA-job 2 Relaxed Surface Scan Step 21
  C      -2.382198     -1.401106      0.449756
  C      -0.130866     -0.890648     -0.048760
  C      -0.305518      0.619759      0.164116
  C      -1.757308      0.953635     -0.183608
  C      -2.719639      0.079237      0.616480
  H      -2.576625     -1.664669     -0.597848
  H       0.362867      1.151534     -0.512248
  H      -1.912965      0.743132     -1.241917
  H      -2.614550      0.335415      1.678062
  H      -0.425544     -0.999600     -1.102203
  O      -1.026231     -1.608282      0.738366