29
Coordinates from ORCA-job 4 Relaxed Surface Scan Step 1
  C      -1.276615     -1.259574      0.088406
  C      -0.638581      0.131339      0.085877
  C      -1.164564      1.002346      1.230931
  C      -2.686206      0.936252      1.336141
  C      -3.158729     -0.510785      1.303937
  H      -0.875432     -1.815816      0.951079
  H      -0.734312      0.605708      2.158483
  H      -2.974133      1.374077      2.300983
  H      -2.774372     -0.994921      2.214047
  H      -0.852049      0.598940     -0.874054
  O      -2.654649     -1.172722      0.183702
  O      -1.048896     -1.961975     -1.067742
  O       0.743443     -0.075770      0.244413
  O      -0.844984      2.345015      1.072049
  H       0.077217      2.443511      0.818476
  O      -3.272184      1.649969      0.295333
  H      -2.717245      2.401657      0.134524
  C       0.206960     -2.531652     -1.285742
  H       0.608400     -2.978816     -0.372039
  H       0.070496     -3.317858     -2.028232
  H       0.924943     -1.806738     -1.660133
  C      -4.668341     -0.649395      1.272098
  H      -4.942473     -1.704921      1.265970
  H      -5.118793     -0.173114      2.145363
  H      -5.060834     -0.178264      0.373386
  S       1.849141      0.867371     -0.499929
  O       1.712520      2.146283      0.179690
  O       3.069539      0.173074     -0.229093
  O       1.432017      0.899937     -1.877212
29
Coordinates from ORCA-job 4 Relaxed Surface Scan Step 2
  C      -1.249094     -1.229851      0.049905
  C      -0.642042      0.170969      0.036281
  C      -1.140926      1.002188      1.220733
  C      -2.662103      0.927283      1.339520
  C      -3.136183     -0.519509      1.272884
  H      -0.844980     -1.774355      0.917679
  H      -0.697169      0.574502      2.128264
  H      -2.942309      1.336577      2.319001
  H      -2.755145     -1.022297      2.174355
  H      -0.912296      0.649030     -0.903334
  O      -2.629618     -1.164460      0.142387
  O      -0.981941     -1.923235     -1.103321
  O       0.746555     -0.016816      0.114528
  O      -0.827371      2.350623      1.106662
  H       0.104104      2.462620      0.896118
  O      -3.259122      1.669437      0.325017
  H      -2.706307      2.425445      0.177160
  C       0.171870     -2.703692     -1.156992
  H       0.223804     -3.389472     -0.303450
  H       0.110718     -3.295333     -2.069139
  H       1.077568     -2.102519     -1.177129
  C      -4.645928     -0.654471      1.234883
  H      -4.921989     -1.709221      1.208573
  H      -5.097600     -0.193599      2.115699
  H      -5.035496     -0.165782      0.344381
  S       1.809141      1.017568     -0.569458
  O       1.776272      2.166474      0.323271
  O       3.025613      0.264559     -0.528616
  O       1.273256      1.290490     -1.875148
29
Coordinates from ORCA-job 4 Relaxed Surface Scan Step 3
  C      -1.251634     -1.239213      0.042881
  C      -0.646642      0.162024      0.004964
  C      -1.136135      1.009485      1.183343
  C      -2.656050      0.930712      1.316895
  C      -3.127850     -0.517664      1.273797
  H      -0.839318     -1.771635      0.914137
  H      -0.680443      0.600197      2.093092
  H      -2.928299      1.352757      2.293139
  H      -2.736631     -1.008258      2.177644
  H      -0.927182      0.630487     -0.936331
  O      -2.631287     -1.175712      0.146399
  O      -0.991586     -1.947425     -1.103504
  O       0.741725     -0.033326      0.063605
  O      -0.832966      2.358093      1.042139
  H       0.111206      2.472190      0.904714
  O      -3.264865      1.657052      0.297742
  H      -2.715286      2.411539      0.131280
  C       0.157244     -2.735711     -1.148828
  H       0.200027     -3.419573     -0.293162
  H       0.096983     -3.329887     -2.059459
  H       1.066621     -2.139696     -1.165186
  C      -4.637611     -0.655978      1.252845
  H      -4.911694     -1.711529      1.242095
  H      -5.081243     -0.185432      2.132631
  H      -5.037245     -0.178818      0.360566
  S       1.809712      1.052446     -0.524474
  O       1.823458      2.089851      0.496777
  O       3.011658      0.279651     -0.604952
  O       1.246617      1.486527     -1.774074
29
Coordinates from ORCA-job 4 Relaxed Surface Scan Step 4
  C      -1.254541     -1.248014      0.032116
  C      -0.650397      0.152849     -0.031456
  C      -1.130421      1.020922      1.138302
  C      -2.648613      0.935759      1.290590
  C      -3.115451     -0.514523      1.276460
  H      -0.830886     -1.768348      0.905025
  H      -0.659790      0.637292      2.050932
  H      -2.911043      1.373196      2.262683
  H      -2.708990     -0.990511      2.181409
  H      -0.941324      0.611001     -0.974712
  O      -2.632769     -1.186494      0.151336
  O      -1.005857     -1.970437     -1.108445
  O       0.737395     -0.053729      0.006591
  O      -0.841811      2.369123      0.960785
  H       0.108169      2.489944      0.898846
  O      -3.273386      1.641829      0.266612
  H      -2.729696      2.395517      0.078649
  C       0.136608     -2.767876     -1.150086
  H       0.175428     -3.446453     -0.290023
  H       0.070528     -3.367923     -2.056544
  H       1.050024     -2.178044     -1.171449
  C      -4.624803     -0.658712      1.279894
  H      -4.894888     -1.715329      1.288429
  H      -5.057216     -0.177206      2.159333
  H      -5.039457     -0.195966      0.386877
  S       1.812205      1.081680     -0.460188
  O       1.843400      1.990110      0.677534
  O       3.007211      0.316566     -0.645423
  O       1.241652      1.666934     -1.643365
29
Coordinates from ORCA-job 4 Relaxed Surface Scan Step 5
  C      -1.256881     -1.253506      0.014650
  C      -0.654104      0.146874     -0.077296
  C      -1.123866      1.038212      1.083332
  C      -2.639319      0.942161      1.261110
  C      -3.096848     -0.510537      1.280559
  H      -0.817370     -1.760634      0.887158
  H      -0.632683      0.688179      1.997273
  H      -2.888774      1.396201      2.228950
  H      -2.668331     -0.969952      2.183894
  H      -0.959022      0.593721     -1.021859
  O      -2.632877     -1.195662      0.155702
  O      -1.023408     -1.989813     -1.120771
  O       0.733171     -0.073821     -0.066538
  O      -0.857183      2.385381      0.860553
  H       0.090181      2.521714      0.870761
  O      -3.287191      1.623735      0.234572
  H      -2.754533      2.379161      0.023683
  C       0.107468     -2.803169     -1.158981
  H       0.137293     -3.478527     -0.296034
  H       0.033243     -3.406548     -2.062685
  H       1.028429     -2.225092     -1.183063
  C      -4.604805     -0.664318      1.317912
  H      -4.867519     -1.722415      1.348328
  H      -5.021940     -0.172180      2.198838
  H      -5.041230     -0.218100      0.426861
  S       1.817861      1.104151     -0.374074
  O       1.829319      1.861206      0.869903
  O       3.016788      0.370163     -0.639888
  O       1.265411      1.836571     -1.482140
29
Coordinates from ORCA-job 4 Relaxed Surface Scan Step 6
  C      -1.256542     -1.250572     -0.011433
  C      -0.660788      0.151232     -0.135468
  C      -1.119531      1.064645      1.018373
  C      -2.630556      0.950288      1.228674
  C      -3.069774     -0.506338      1.287350
  H      -0.793088     -1.741904      0.857165
  H      -0.602240      0.756275      1.930372
  H      -2.864699      1.421908      2.191862
  H      -2.610008     -0.945377      2.185379
  H      -0.989947      0.585400     -1.078381
  O      -2.629141     -1.203178      0.160666
  O      -1.040912     -1.998448     -1.143273
  O       0.726055     -0.082718     -0.168355
  O      -0.887752      2.410581      0.743806
  H       0.049178      2.578256      0.781337
  O      -3.311208      1.600660      0.202741
  H      -2.797251      2.361564     -0.032755
  C       0.069537     -2.838954     -1.174403
  H       0.073463     -3.520541     -0.315829
  H      -0.008689     -3.434868     -2.082772
  H       1.003894     -2.282013     -1.185287
  C      -4.574071     -0.677197      1.370468
  H      -4.822792     -1.737690      1.425699
  H      -4.971891     -0.175586      2.254975
  H      -5.041322     -0.251125      0.485193
  S       1.831900      1.110523     -0.259257
  O       1.787958      1.676233      1.079666
  O       3.039073      0.415895     -0.585412
  O       1.332428      2.006206     -1.270385
29
Coordinates from ORCA-job 4 Relaxed Surface Scan Step 7
  C      -1.263226     -1.228113     -0.024125
  C      -0.663374      0.174028     -0.157628
  C      -1.149144      1.123438      0.952208
  C      -2.654408      0.967852      1.201708
  C      -3.056485     -0.496287      1.294669
  H      -0.788468     -1.711216      0.841711
  H      -0.605191      0.872997      1.867604
  H      -2.878038      1.451965      2.161244
  H      -2.558599     -0.915693      2.181341
  H      -0.956003      0.580821     -1.125507
  O      -2.632625     -1.190635      0.159775
  O      -1.048910     -1.974724     -1.157305
  O       0.719924     -0.084799     -0.136866
  O      -0.977793      2.467042      0.625530
  H      -0.133093      2.603613      0.191163
  O      -3.374315      1.579507      0.180106
  H      -2.876676      2.346498     -0.071791
  C       0.061467     -2.816315     -1.191849
  H       0.071273     -3.492980     -0.329872
  H      -0.023674     -3.416803     -2.096621
  H       0.995552     -2.259085     -1.212746
  C      -4.552953     -0.701958      1.426151
  H      -4.774270     -1.767371      1.500788
  H      -4.935050     -0.199864      2.317249
  H      -5.057596     -0.297306      0.551415
  S       1.908995      1.025099     -0.057208
  O       2.113475      1.215646      1.353712
  O       2.981938      0.397417     -0.765619
  O       1.338549      2.190382     -0.718522
29
Coordinates from ORCA-job 4 Relaxed Surface Scan Step 8
  C      -1.231819     -1.189990     -0.056266
  C      -0.772172      0.240245     -0.338598
  C      -1.164796      1.164782      0.817374
  C      -2.648832      0.990013      1.141424
  C      -3.005438     -0.479791      1.317982
  H      -0.663460     -1.565559      0.806801
  H      -0.580987      0.888547      1.696092
  H      -2.834420      1.504130      2.092693
  H      -2.473525     -0.829349      2.214568
  H      -1.277856      0.578047     -1.242438
  O      -2.589226     -1.233438      0.218222
  O      -1.033274     -2.002646     -1.145404
  O       0.599768      0.136490     -0.632566
  O      -1.005277      2.519639      0.533940
  H      -0.096904      2.691397      0.277560
  O      -3.432811      1.553978      0.136760
  H      -2.990247      2.346125     -0.137067
  C       0.099273     -2.814432     -1.150020
  H       0.111892     -3.479736     -0.279077
  H       0.047474     -3.428410     -2.048188
  H       1.017914     -2.231281     -1.166171
  C      -4.491332     -0.720116      1.500151
  H      -4.677986     -1.785341      1.641434
  H      -4.866619     -0.178429      2.370696
  H      -5.030021     -0.381882      0.617445
  S       1.860611      0.908063      0.040314
  O       1.796968      0.614096      1.451633
  O       2.954955      0.318062     -0.666974
  O       1.609432      2.309942     -0.251604
29
Coordinates from ORCA-job 4 Relaxed Surface Scan Step 9
  C      -1.192234     -1.154268     -0.046550
  C      -0.838129      0.285311     -0.413703
  C      -1.200878      1.221432      0.737515
  C      -2.669067      1.031253      1.104366
  C      -2.975193     -0.445547      1.335111
  H      -0.588380     -1.467677      0.813288
  H      -0.597923      0.952932      1.605222
  H      -2.845429      1.565924      2.045882
  H      -2.425033     -0.739213      2.240164
  H      -1.440096      0.545618     -1.281978
  O      -2.544899     -1.234081      0.264775
  O      -0.990348     -2.003661     -1.107362
  O       0.495652      0.348831     -0.845958
  O      -1.029975      2.570818      0.437070
  H      -0.094934      2.728523      0.305552
  O      -3.493563      1.549680      0.105720
  H      -3.087063      2.349803     -0.197696
  C       0.188003     -2.748422     -1.113059
  H       0.252546     -3.393075     -0.229552
  H       0.160783     -3.381084     -1.999268
  H       1.073085     -2.116316     -1.154960
  C      -4.451018     -0.726123      1.541060
  H      -4.600888     -1.789984      1.728311
  H      -4.837589     -0.160806      2.391490
  H      -5.007874     -0.443434      0.650007
  S       1.791719      0.709071      0.067199
  O       1.596242      0.023535      1.325429
  O       2.859564      0.210498     -0.745106
  O       1.724204      2.153620      0.197744
29
Coordinates from ORCA-job 4 Relaxed Surface Scan Step 10
  C      -1.178617     -1.146687     -0.043959
  C      -0.840846      0.292615     -0.426716
  C      -1.210311      1.252487      0.706593
  C      -2.672749      1.053694      1.089617
  C      -2.958021     -0.425541      1.337836
  H      -0.578682     -1.456573      0.816228
  H      -0.594955      1.029378      1.579022
  H      -2.850241      1.597197      2.026123
  H      -2.392440     -0.704854      2.237964
  H      -1.456553      0.531453     -1.290940
  O      -2.533953     -1.218175      0.268133
  O      -0.980067     -2.002580     -1.101163
  O       0.485619      0.410719     -0.879200
  O      -1.050126      2.582254      0.326369
  H      -0.108688      2.742929      0.276460
  O      -3.511407      1.548675      0.090898
  H      -3.110986      2.341347     -0.238728
  C       0.198848     -2.745907     -1.104063
  H       0.273200     -3.375379     -0.211061
  H       0.166103     -3.391572     -1.980794
  H       1.083296     -2.114279     -1.160258
  C      -4.427860     -0.720281      1.566446
  H      -4.563363     -1.783880      1.765654
  H      -4.809611     -0.151126      2.416565
  H      -4.999529     -0.452473      0.680155
  S       1.765590      0.643122      0.095735
  O       1.569347     -0.283388      1.188269
  O       2.869295      0.355132     -0.767369
  O       1.648990      2.034850      0.496900
29
Coordinates from ORCA-job 4 Relaxed Surface Scan Step 11
  C      -1.160624     -1.138282     -0.033893
  C      -0.833071      0.303005     -0.419885
  C      -1.219986      1.279534      0.697438
  C      -2.682321      1.074817      1.075523
  C      -2.946795     -0.405652      1.341945
  H      -0.564695     -1.453979      0.824858
  H      -0.606199      1.101321      1.579533
  H      -2.872833      1.629341      2.003266
  H      -2.373529     -0.667805      2.242631
  H      -1.457786      0.525571     -1.281511
  O      -2.518793     -1.203363      0.278213
  O      -0.969965     -1.991332     -1.094599
  O       0.485814      0.471127     -0.885432
  O      -1.066207      2.587971      0.244663
  H      -0.127789      2.761004      0.250553
  O      -3.523234      1.542664      0.066000
  H      -3.125830      2.326758     -0.286619
  C       0.186814     -2.768430     -1.091066
  H       0.233748     -3.407231     -0.203110
  H       0.144398     -3.404422     -1.974536
  H       1.089445     -2.162650     -1.126051
  C      -4.411734     -0.716585      1.581155
  H      -4.532854     -1.779625      1.792178
  H      -4.796937     -0.143234      2.426949
  H      -4.990674     -0.465713      0.694568
  S       1.770243      0.609152      0.102595
  O       1.646696     -0.527468      0.986746
  O       2.883936      0.577185     -0.793142
  O       1.572043      1.889477      0.761743
29
Coordinates from ORCA-job 4 Relaxed Surface Scan Step 12
  C      -0.966082     -0.981262     -0.093310
  C      -0.763401      0.485781     -0.452272
  C      -1.228845      1.379754      0.703284
  C      -2.675716      1.063264      1.058400
  C      -2.827907     -0.440036      1.286786
  H      -0.361575     -1.254398      0.772799
  H      -0.609643      1.208837      1.580579
  H      -2.915406      1.578942      1.997135
  H      -2.247308     -0.677666      2.189846
  H      -1.412049      0.676996     -1.304065
  O      -2.323825     -1.172102      0.210095
  O      -0.656281     -1.766700     -1.165020
  O       0.522239      0.810122     -0.909829
  O      -1.158084      2.716576      0.309261
  H      -0.235516      2.941706      0.280237
  O      -3.542265      1.491135      0.052106
  H      -3.204472      2.311311     -0.279284
  C      -0.169142     -3.035679     -0.874130
  H      -0.886908     -3.616967     -0.286542
  H      -0.005764     -3.547854     -1.821299
  H       0.778447     -2.971979     -0.337101
  C      -4.266954     -0.869578      1.498191
  H      -4.307869     -1.943814      1.682383
  H      -4.706158     -0.349448      2.352047
  H      -4.853163     -0.642429      0.609968
  S       1.858096      0.762837      0.021636
  O       1.911293     -0.600211      0.498335
  O       2.899681      1.144767     -0.880067
  O       1.585858      1.741250      1.060547
29
Coordinates from ORCA-job 4 Relaxed Surface Scan Step 13
  C      -0.940078     -0.942335     -0.073097
  C      -0.750408      0.526420     -0.434320
  C      -1.268626      1.431283      0.684872
  C      -2.706984      1.083249      1.040211
  C      -2.811049     -0.416511      1.306780
  H      -0.324674     -1.214105      0.787269
  H      -0.645855      1.305215      1.567107
  H      -2.969100      1.616916      1.962712
  H      -2.217519     -0.616458      2.210326
  H      -1.362314      0.693870     -1.318526
  O      -2.292163     -1.152347      0.240455
  O      -0.635188     -1.716645     -1.152768
  O       0.547923      0.884857     -0.823343
  O      -1.245815      2.766262      0.264385
  H      -0.354542      2.972508      0.017400
  O      -3.579078      1.454279      0.016515
  H      -3.259806      2.271544     -0.339187
  C      -0.188669     -3.005325     -0.879097
  H      -0.931339     -3.573314     -0.310025
  H      -0.032501     -3.504559     -1.834350
  H       0.755460     -2.976770     -0.335026
  C      -4.234702     -0.886024      1.536709
  H      -4.241066     -1.956864      1.743573
  H      -4.684538     -0.362038      2.382638
  H      -4.832983     -0.695978      0.647777
  S       1.901713      0.646370      0.070187
  O       2.011805     -0.786177      0.207139
  O       2.901155      1.268516     -0.742828
  O       1.622228      1.327315      1.317225
29
Coordinates from ORCA-job 4 Relaxed Surface Scan Step 14
  C      -0.927084     -0.924368     -0.062727
  C      -0.745199      0.542898     -0.432749
  C      -1.289323      1.461465      0.660073
  C      -2.721598      1.101544      1.021247
  C      -2.796765     -0.392325      1.325668
  H      -0.294384     -1.188823      0.788806
  H      -0.665107      1.358316      1.544161
  H      -2.994897      1.653193      1.929823
  H      -2.194608     -0.559326      2.229755
  H      -1.332738      0.694135     -1.336707
  O      -2.271581     -1.143660      0.272995
  O      -0.639050     -1.698918     -1.146686
  O       0.561297      0.917615     -0.777265
  O      -1.279358      2.791392      0.216779
  H      -0.415497      2.971719     -0.128728
  O      -3.597594      1.431185     -0.013188
  H      -3.291044      2.245007     -0.387400
  C      -0.197710     -2.991451     -0.880948
  H      -0.938998     -3.555690     -0.306489
  H      -0.054181     -3.488225     -1.839357
  H       0.752607     -2.969569     -0.348133
  C      -4.210365     -0.882231      1.574310
  H      -4.196382     -1.947882      1.806042
  H      -4.665178     -0.346884      2.410409
  H      -4.816623     -0.723868      0.684496
  S       1.908070      0.572052      0.099897
  O       2.126466     -0.840974     -0.080159
  O       2.870869      1.431381     -0.519830
  O       1.547237      0.925448      1.456619
29
Coordinates from ORCA-job 4 Relaxed Surface Scan Step 15
  C      -0.930860     -0.921202     -0.060363
  C      -0.742848      0.544512     -0.435055
  C      -1.300202      1.484136      0.631857
  C      -2.726838      1.117473      1.009481
  C      -2.786441     -0.372061      1.337830
  H      -0.292360     -1.186748      0.785341
  H      -0.669880      1.415100      1.515312
  H      -3.000192      1.681416      1.910538
  H      -2.169555     -0.522115      2.234562
  H      -1.311879      0.687686     -1.352253
  O      -2.272669     -1.134338      0.287025
  O      -0.656082     -1.696580     -1.148542
  O       0.571118      0.922623     -0.749002
  O      -1.309084      2.799624      0.143242
  H      -0.454566      2.971984     -0.229169
  O      -3.611794      1.420900     -0.025189
  H      -3.311572      2.227746     -0.419032
  C      -0.188589     -2.981180     -0.888733
  H      -0.904029     -3.552303     -0.288792
  H      -0.066468     -3.481833     -1.848067
  H       0.777597     -2.943118     -0.386103
  C      -4.193108     -0.867331      1.614119
  H      -4.168677     -1.929401      1.860923
  H      -4.639294     -0.323009      2.449095
  H      -4.813290     -0.725857      0.731041
  S       1.899625      0.512649      0.130258
  O       2.233478     -0.820280     -0.298448
  O       2.821883      1.537979     -0.256664
  O       1.447860      0.576683      1.505504
29
Coordinates from ORCA-job 4 Relaxed Surface Scan Step 16
  C      -0.956836     -0.933800     -0.060839
  C      -0.744701      0.529453     -0.435117
  C      -1.304223      1.497565      0.604569
  C      -2.726758      1.133669      1.008380
  C      -2.787695     -0.354665      1.343992
  H      -0.327388     -1.212114      0.784176
  H      -0.663114      1.471039      1.483669
  H      -2.987127      1.703621      1.909596
  H      -2.151424     -0.507542      2.226376
  H      -1.297804      0.671524     -1.362212
  O      -2.302622     -1.121304      0.282367
  O      -0.689991     -1.710748     -1.152428
  O       0.577074      0.898295     -0.729484
  O      -1.335427      2.789088      0.053585
  H      -0.481229      2.960748     -0.320213
  O      -3.625689      1.430731     -0.015499
  H      -3.319310      2.222847     -0.433679
  C      -0.156243     -2.971184     -0.899787
  H      -0.813671     -3.561123     -0.253207
  H      -0.066668     -3.482896     -1.856904
  H       0.833846     -2.886909     -0.451938
  C      -4.191347     -0.839222      1.652927
  H      -4.168608     -1.900631      1.902695
  H      -4.615396     -0.289323      2.495783
  H      -4.829870     -0.696441      0.783218
  S       1.892107      0.465462      0.158350
  O       2.363479     -0.740751     -0.468323
  O       2.739024      1.612631      0.014793
  O       1.368895      0.265136      1.495868
29
Coordinates from ORCA-job 4 Relaxed Surface Scan Step 17
  C      -1.210956     -1.158016     -0.023463
  C      -0.817051      0.261571     -0.425863
  C      -1.167202      1.251081      0.687847
  C      -2.641526      1.110748      1.051311
  C      -2.984237     -0.352727      1.318692
  H      -0.633903     -1.471830      0.851314
  H      -0.573839      1.016458      1.572337
  H      -2.812426      1.675491      1.976370
  H      -2.443857     -0.637044      2.232604
  H      -1.411799      0.508211     -1.302558
  O      -2.571968     -1.178279      0.269460
  O      -1.026919     -2.040414     -1.061204
  O       0.518950      0.319047     -0.860987
  O      -0.954615      2.570409      0.297394
  H      -0.007892      2.696381      0.244236
  O      -3.446782      1.619880      0.032445
  H      -3.012573      2.392146     -0.302894
  C       0.130533     -2.816702     -1.038559
  H       1.032939     -2.212040     -1.104860
  H       0.181535     -3.425865     -0.129935
  H       0.083975     -3.482794     -1.899228
  C      -4.467309     -0.590480      1.527431
  H      -4.644392     -1.644906      1.742194
  H      -4.841930      0.006731      2.361307
  H      -5.014469     -0.317738      0.627291
  S       1.794815      0.542779      0.121477
  O       2.895472      0.161737     -0.708998
  O       1.734703      1.956917      0.449301
  O       1.544005     -0.317597      1.256251
29
Coordinates from ORCA-job 4 Relaxed Surface Scan Step 18
  C      -1.204415     -1.154602     -0.016924
  C      -0.815875      0.264709     -0.426575
  C      -1.172645      1.264429      0.675536
  C      -2.646370      1.122164      1.039844
  C      -2.980243     -0.341242      1.319790
  H      -0.628959     -1.466710      0.858670
  H      -0.578148      1.050305      1.564565
  H      -2.821409      1.694727      1.959410
  H      -2.435779     -0.615565      2.234449
  H      -1.413478      0.500756     -1.304108
  O      -2.566529     -1.172031      0.275518
  O      -1.022328     -2.039987     -1.052350
  O       0.517735      0.344609     -0.864066
  O      -0.962663      2.575305      0.254247
  H      -0.016033      2.705703      0.243132
  O      -3.454249      1.616409      0.015751
  H      -3.024400      2.386711     -0.329320
  C       0.129984     -2.823758     -1.026421
  H       1.036204     -2.225700     -1.094615
  H       0.178760     -3.427755     -0.114570
  H       0.077856     -3.493563     -1.883950
  C      -4.461387     -0.585530      1.534619
  H      -4.632068     -1.639257      1.757773
  H      -4.837041      0.015893      2.365019
  H      -5.012465     -0.322691      0.633905
  S       1.796883      0.517293      0.124736
  O       2.898492      0.302870     -0.762112
  O       1.673104      1.874092      0.629104
  O       1.608750     -0.484426      1.149657
29
Coordinates from ORCA-job 4 Relaxed Surface Scan Step 19
  C      -1.157999     -1.110998     -0.041427
  C      -0.803173      0.318568     -0.441857
  C      -1.174682      1.296580      0.675726
  C      -2.646766      1.129484      1.033179
  C      -2.953181     -0.341623      1.305808
  H      -0.574268     -1.416581      0.830295
  H      -0.581620      1.080372      1.564166
  H      -2.834506      1.693898      1.955340
  H      -2.406248     -0.608130      2.221617
  H      -1.416974      0.549466     -1.309392
  O      -2.520533     -1.160631      0.260234
  O      -0.948858     -1.971049     -1.089621
  O       0.519726      0.443639     -0.898126
  O      -0.975655      2.614356      0.269384
  H      -0.031719      2.754344      0.288156
  O      -3.461592      1.614501      0.010015
  H      -3.046880      2.395316     -0.329665
  C       0.043699     -2.935586     -0.930359
  H       1.005376     -2.488323     -0.685597
  H      -0.221942     -3.653608     -0.146064
  H       0.124285     -3.472429     -1.874512
  C      -4.429898     -0.615524      1.515895
  H      -4.580777     -1.673439      1.733575
  H      -4.819337     -0.025543      2.348170
  H      -4.983672     -0.359136      0.614957
  S       1.825004      0.568651      0.060579
  O       2.898176      0.608776     -0.883277
  O       1.612339      1.806596      0.791236
  O       1.772958     -0.598795      0.912280
29
Coordinates from ORCA-job 4 Relaxed Surface Scan Step 20
  C      -1.002010     -1.013253     -0.071970
  C      -0.743355      0.435651     -0.464233
  C      -1.172514      1.361867      0.679269
  C      -2.637588      1.118557      1.014511
  C      -2.862412     -0.371178      1.271332
  H      -0.408240     -1.281548      0.804786
  H      -0.581086      1.148432      1.566903
  H      -2.866375      1.662106      1.939990
  H      -2.315124     -0.611424      2.194199
  H      -1.381164      0.637769     -1.321690
  O      -2.365876     -1.154178      0.226661
  O      -0.710457     -1.838124     -1.119440
  O       0.556499      0.677355     -0.926658
  O      -1.019430      2.697727      0.308976
  H      -0.083931      2.871462      0.334807
  O      -3.467953      1.568595     -0.012769
  H      -3.096088      2.375572     -0.340235
  C      -0.242017     -3.104874     -0.790596
  H       0.711253     -3.040252     -0.263236
  H      -0.963951     -3.654372     -0.178057
  H      -0.095174     -3.650827     -1.721395
  C      -4.323684     -0.732265      1.456432
  H      -4.416389     -1.799007      1.663889
  H      -4.759526     -0.173213      2.287062
  H      -4.877985     -0.500778      0.549060
  S       1.884866      0.691874      0.011065
  O       2.915874      1.034551     -0.919246
  O       1.595680      1.718952      0.997470
  O       1.959442     -0.632022      0.583828
29
Coordinates from ORCA-job 4 Relaxed Surface Scan Step 21
  C      -0.977816     -0.979889     -0.053829
  C      -0.732802      0.471668     -0.447403
  C      -1.205627      1.409436      0.667019
  C      -2.665409      1.138360      0.999721
  C      -2.848723     -0.351007      1.285772
  H      -0.380782     -1.248757      0.820933
  H      -0.608759      1.244800      1.559961
  H      -2.915293      1.695875      1.911377
  H      -2.288657     -0.561781      2.208091
  H      -1.349005      0.650410     -1.326021
  O      -2.339931     -1.134396      0.248227
  O      -0.685909     -1.794936     -1.107186
  O       0.573371      0.753952     -0.867212
  O      -1.097021      2.741040      0.253546
  H      -0.175131      2.921198      0.125393
  O      -3.501784      1.540532     -0.042286
  H      -3.142934      2.341990     -0.396242
  C      -0.247190     -3.076567     -0.791179
  H       0.701237     -3.036731     -0.254860
  H      -0.989385     -3.618575     -0.196477
  H      -0.102375     -3.610912     -1.729060
  C      -4.298753     -0.747127      1.487188
  H      -4.362201     -1.812474      1.711972
  H      -4.743426     -0.186628      2.312171
  H      -4.864959     -0.544761      0.580165
  S       1.914604      0.580271      0.050608
  O       2.927170      1.123959     -0.802453
  O       1.626597      1.368521      1.232015
  O       2.012175     -0.834315      0.320764
29
Coordinates from ORCA-job 4 Relaxed Surface Scan Step 22
  C      -0.950743     -0.946358     -0.043564