21
Coordinates from ORCA-job 6 Relaxed Surface Scan Step 1
  C      -5.324084      1.067425      0.506480
  H      -4.957144      1.879420      1.135859
  H      -5.624107      1.499875     -0.451132
  H      -6.221079      0.668577      0.982794
  C      -4.283911     -0.033121      0.317393
  H      -4.014332     -0.460247      1.285886
  H      -4.741471     -0.847101     -0.254854
  C      -3.015488      0.400497     -0.427719
  H      -3.329113      0.965107     -1.314041
  C      -2.090452      1.304332      0.395708
  H      -1.461112      1.883917     -0.284304
  H      -2.716431      2.039877      0.904168
  C      -1.199621      0.593287      1.428726
  H      -0.977949      1.298745      2.233303
  H      -1.750960     -0.226131      1.896062
  C       0.126949      0.068109      0.883306
  H       0.714661     -0.391220      1.681992
  H      -0.028249     -0.671279      0.101711
  H       0.723931      0.883093      0.464939
  O      -2.281901     -0.720039     -0.844634
  H      -2.815418     -1.265688     -1.399511
21
Coordinates from ORCA-job 6 Relaxed Surface Scan Step 2
  C      -5.364423      1.130679      0.384862
  H      -5.005324      1.987141      0.957559
  H      -5.609604      1.484179     -0.619636
  H      -6.291879      0.794282      0.851174
  C      -4.343553     -0.002716      0.338990
  H      -4.143110     -0.363696      1.351133
  H      -4.785116     -0.845729     -0.202697
  C      -3.020282      0.357701     -0.347372
  H      -3.257490      0.900560     -1.269583
  C      -2.117234      1.256184      0.516734
  H      -1.563919      1.946559     -0.124343
  H      -2.764710      1.891748      1.123062
  C      -1.131479      0.520242      1.439772
  H      -0.903121      1.170873      2.287242
  H      -1.609947     -0.366907      1.860581
  C       0.189594      0.126164      0.782519
  H       0.844210     -0.369937      1.503128
  H       0.031813     -0.547393     -0.056187
  H       0.718321      1.010262      0.415478
  O      -2.310293     -0.803719     -0.686291
  H      -2.829734     -1.339045     -1.263996
21
Coordinates from ORCA-job 6 Relaxed Surface Scan Step 3
  C      -5.366180      1.199856      0.296422
  H      -4.996212      2.039574      0.886719
  H      -5.527219      1.558517     -0.723196
  H      -6.338654      0.919177      0.704164
  C      -4.409723      0.011384      0.318573
  H      -4.294197     -0.361353      1.340112
  H      -4.859501     -0.806178     -0.254817
  C      -3.024107      0.294089     -0.271873
  H      -3.166325      0.808216     -1.229517
  C      -2.153922      1.194291      0.634244
  H      -1.690501      1.980489      0.033703
  H      -2.816137      1.718040      1.325270
  C      -1.063485      0.485580      1.452328
  H      -0.813214      1.126327      2.302030
  H      -1.460004     -0.439972      1.873774
  C       0.224716      0.193153      0.686595
  H       0.958951     -0.286938      1.337903
  H       0.043549     -0.462296     -0.162112
  H       0.673473      1.118635      0.314761
  O      -2.346901     -0.911738     -0.509525
  H      -2.841687     -1.441422     -1.113427
21
Coordinates from ORCA-job 6 Relaxed Surface Scan Step 4
  C      -5.340732      1.270410      0.222794
  H      -4.960644      2.073135      0.856385
  H      -5.404353      1.656732     -0.797529
  H      -6.356177      1.046843      0.553808
  C      -4.466334      0.022211      0.285507
  H      -4.438827     -0.377725      1.303295
  H      -4.925696     -0.755328     -0.334560
  C      -3.027332      0.220080     -0.198584
  H      -3.070671      0.697588     -1.184616
  C      -2.192050      1.123123      0.743070
  H      -1.822446      1.985061      0.181434
  H      -2.856000      1.533153      1.505652
  C      -1.005015      0.465082      1.459487
  H      -0.743780      1.103916      2.308431
  H      -1.313299     -0.492925      1.879815
  C       0.237948      0.272941      0.595196
  H       1.047491     -0.175698      1.175619
  H       0.032496     -0.376126     -0.253969
  H       0.600788      1.231672      0.213863
  O      -2.396421     -1.027075     -0.325927
  H      -2.866225     -1.559635     -0.947041
21
Coordinates from ORCA-job 6 Relaxed Surface Scan Step 5
  C      -5.294069      1.337075      0.153142
  H      -4.913813      2.100072      0.833843
  H      -5.254444      1.747090     -0.859190
  H      -6.344112      1.172585      0.400166
  C      -4.506859      0.034705      0.250722
  H      -4.567372     -0.383917      1.259951
  H      -4.969503     -0.703528     -0.413719
  C      -3.027696      0.144000     -0.124239
  H      -2.971243      0.577095     -1.130102
  C      -2.229412      1.047195      0.847397
  H      -1.959680      1.973399      0.329949
  H      -2.884195      1.339027      1.670685
  C      -0.957484      0.450873      1.460218
  H      -0.687939      1.082519      2.312560
  H      -1.176962     -0.535622      1.868065
  C       0.228593      0.359618      0.505633
  H       1.106125     -0.048275      1.012318
  H       0.001695     -0.287012     -0.341373
  H       0.501111      1.345962      0.119632
  O      -2.455713     -1.137556     -0.141705
  H      -2.904308     -1.677871     -0.771823
21
Coordinates from ORCA-job 6 Relaxed Surface Scan Step 6
  C      -5.229228      1.399462      0.079767
  H      -4.861190      2.125951      0.805516
  H      -5.080814      1.821885     -0.917307
  H      -6.304212      1.296161      0.236034
  C      -4.532639      0.050097      0.216281
  H      -4.685663     -0.372127      1.214500
  H      -4.990337     -0.654665     -0.486998
  C      -3.025996      0.067167     -0.044091
  H      -2.864905      0.450431     -1.059165
  C      -2.265168      0.964525      0.954408
  H      -2.105834      1.945665      0.492180
  H      -2.898327      1.130432      1.829256
  C      -0.917214      0.439630      1.455283
  H      -0.633396      1.058266      2.312468
  H      -1.045302     -0.571505      1.839684
  C       0.197234      0.452897      0.414877
  H       1.136083      0.094418      0.842502
  H      -0.048592     -0.191469     -0.429949
  H       0.373420      1.462454      0.033098
  O      -2.526265     -1.241262      0.043508
  H      -2.958936     -1.790979     -0.589720
21
Coordinates from ORCA-job 6 Relaxed Surface Scan Step 7
  C      -5.149683      1.456451     -0.004166
  H      -4.818799      2.156238      0.764303
  H      -4.878689      1.876620     -0.976146
  H      -6.238979      1.410995      0.041559
  C      -4.545181      0.069803      0.187180
  H      -4.799288     -0.334650      1.171934
  H      -4.987529     -0.612294     -0.547596
  C      -3.024577     -0.006960      0.047271
  H      -2.756696      0.328175     -0.962913
  C      -2.295336      0.871657      1.073039
  H      -2.254515      1.896355      0.684726
  H      -2.890170      0.903621      1.990148
  C      -0.879834      0.427873      1.446549
  H      -0.565929      1.032378      2.302780
  H      -0.911761     -0.602715      1.797855
  C       0.142035      0.550177      0.321339
  H       1.137440      0.259435      0.663568
  H      -0.117869     -0.096749     -0.518205
  H       0.207861      1.576532     -0.050321
  O      -2.608713     -1.335626      0.222768
  H      -3.031069     -1.889884     -0.413538
21
Coordinates from ORCA-job 6 Relaxed Surface Scan Step 8
  C      -5.059706      1.504813     -0.107331
  H      -4.767935      2.209761      0.672111
  H      -4.678220      1.883230     -1.059174
  H      -6.149440      1.513491     -0.163690
  C      -4.548925      0.095767      0.175157
  H      -4.905172     -0.254323      1.148273
  H      -4.973730     -0.587603     -0.568676
  C      -3.028731     -0.071731      0.146810
  H      -2.669466      0.233887     -0.844525
  C      -2.315486      0.764636      1.207656
  H      -2.393607      1.820050      0.928121
  H      -2.849763      0.646856      2.155049
  C      -0.843817      0.413688      1.437010
  H      -0.488778      1.012533      2.280696
  H      -0.772797     -0.628121      1.749194
  C       0.064432      0.645783      0.233294
  H       1.106331      0.441423      0.488176
  H      -0.201074     -0.007950     -0.599284
  H       0.008002      1.679569     -0.118910
  O      -2.697385     -1.416947      0.369087
  H      -3.102014     -1.961377     -0.286912
21
Coordinates from ORCA-job 6 Relaxed Surface Scan Step 9
  C      -4.939945      1.542274     -0.240353
  H      -4.632974      2.295997      0.485758
  H      -4.487082      1.801196     -1.200814
  H      -6.022045      1.624124     -0.355275
  C      -4.552570      0.131791      0.194303
  H      -4.989229     -0.096283      1.169986
  H      -4.992915     -0.582880     -0.509510
  C      -3.047568     -0.144333      0.248602
  H      -2.621590      0.135639     -0.722773
  C      -2.324632      0.628955      1.345157
  H      -2.514851      1.695420      1.212685
  H      -2.773707      0.347360      2.301799
  C      -0.813389      0.390716      1.421502
  H      -0.424552      0.971256      2.263067
  H      -0.630630     -0.658514      1.657114
  C      -0.033288      0.772898      0.165782
  H       1.040881      0.674676      0.334961
  H      -0.286687      0.132463     -0.680608
  H      -0.226832      1.808438     -0.127791
  O      -2.809560     -1.506991      0.485636
  H      -3.184115     -2.026767     -0.207095
21
Coordinates from ORCA-job 6 Relaxed Surface Scan Step 10
  C      -4.735082      1.539004     -0.435034
  H      -4.265233      2.345318      0.130402
  H      -4.306463      1.546398     -1.440244
  H      -5.794803      1.782274     -0.527891
  C      -4.551157      0.181167      0.237364
  H      -5.022668      0.188604      1.223185
  H      -5.084954     -0.573924     -0.348788
  C      -3.093684     -0.273579      0.364584
  H      -2.609645     -0.094292     -0.602032
  C      -2.319466      0.453389      1.460609
  H      -2.606613      1.505195      1.484852
  H      -2.649618      0.026540      2.410762
  C      -0.794957      0.343548      1.362005
  H      -0.360650      0.789295      2.261061
  H      -0.513253     -0.711641      1.371055
  C      -0.171889      1.034619      0.149965
  H       0.917785      0.985949      0.198864
  H      -0.471534      0.574498     -0.793054
  H      -0.452209      2.090637      0.108142
  O      -3.016505     -1.642203      0.669420
  H      -3.364681     -2.153362     -0.043098
21
Coordinates from ORCA-job 6 Relaxed Surface Scan Step 11
  C      -4.496264      1.525675     -0.546499
  H      -3.939200      2.303375     -0.021174
  H      -4.040853      1.402134     -1.532110
  H      -5.511073      1.897379     -0.697311
  C      -4.512316      0.209874      0.226312
  H      -5.018941      0.349883      1.184340
  H      -5.110306     -0.517686     -0.332011
  C      -3.125771     -0.398000      0.458586
  H      -2.585660     -0.353442     -0.493526
  C      -2.308897      0.317038      1.540379
  H      -2.674612      1.333475      1.689165
  H      -2.512229     -0.211763      2.473123
  C      -0.797976      0.349173      1.291853
  H      -0.300820      0.704710      2.198122
  H      -0.443580     -0.671938      1.126221
  C      -0.356999      1.246472      0.136620
  H       0.730669      1.246812      0.041135
  H      -0.765012      0.923360     -0.822808
  H      -0.673424      2.280159      0.298634
  O      -3.220048     -1.742098      0.857161
  H      -3.603969     -2.257161      0.165918
21
Coordinates from ORCA-job 6 Relaxed Surface Scan Step 12
  C      -4.278868      1.523843     -0.592840
  H      -3.699787      2.264482     -0.039254
  H      -3.770501      1.349711     -1.544127
  H      -5.249669      1.969361     -0.816002
  C      -4.451481      0.227325      0.191791
  H      -4.999323      0.423284      1.116847
  H      -5.075983     -0.455353     -0.394178
  C      -3.145592     -0.499308      0.525670
  H      -2.566145     -0.586077     -0.400944
  C      -2.288900      0.202621      1.593774
  H      -2.722448      1.167582      1.863095
  H      -2.359659     -0.413392      2.490340
  C      -0.811916      0.386890      1.231873
  H      -0.275125      0.724954      2.122033
  H      -0.386861     -0.587096      0.971471
  C      -0.536412      1.384680      0.109238
  H       0.536226      1.471929     -0.075036
  H      -1.003988      1.090449     -0.832194
  H      -0.908214      2.379704      0.365903
  O      -3.411491     -1.792876      1.007567
  H      -3.861143     -2.295282      0.347103
21
Coordinates from ORCA-job 6 Relaxed Surface Scan Step 13
  C      -4.130045      1.515599     -0.638692
  H      -3.553207      2.247793     -0.073456
  H      -3.586906      1.302430     -1.561883
  H      -5.073751      1.988409     -0.915860
  C      -4.393223      0.247645      0.165201
  H      -4.956265      0.498090      1.067446
  H      -5.041792     -0.407536     -0.426416
  C      -3.159915     -0.567762      0.569947
  H      -2.567455     -0.766697     -0.331807
  C      -2.257871      0.099713      1.626037
  H      -2.741731      0.990063      2.034820
  H      -2.200461     -0.605371      2.454691
  C      -0.825538      0.427508      1.188279
  H      -0.273323      0.769722      2.067254
  H      -0.338630     -0.498700      0.867723
  C      -0.663722      1.482824      0.097733
  H       0.394486      1.653489     -0.110432
  H      -1.134319      1.186581     -0.840732
  H      -1.096432      2.438979      0.400324
  O      -3.571601     -1.797466      1.115243
  H      -4.095579     -2.267881      0.486711
21
Coordinates from ORCA-job 6 Relaxed Surface Scan Step 14
  C      -4.044137      1.466932     -0.749362
  H      -3.445849      2.232303     -0.258183
  H      -3.515268      1.151858     -1.651513
  H      -4.976510      1.938086     -1.065511
  C      -4.348149      0.289805      0.169642
  H      -4.852732      0.656974      1.066204
  H      -5.069840     -0.356086     -0.341710
  C      -3.178190     -0.607197      0.601318
  H      -2.609486     -0.898930     -0.291308
  C      -2.209067     -0.008061      1.637635
  H      -2.707090      0.784882      2.202042
  H      -2.039120     -0.805422      2.360442
  C      -0.826231      0.445232      1.150087
  H      -0.250677      0.738217      2.031513
  H      -0.308668     -0.422713      0.729664
  C      -0.745373      1.596488      0.152609
  H       0.299726      1.845149     -0.043386
  H      -1.203631      1.352009     -0.805443
  H      -1.228277      2.497225      0.537504
  O      -3.703996     -1.767616      1.200685
  H      -4.304715     -2.191702      0.609202
21
Coordinates from ORCA-job 6 Relaxed Surface Scan Step 15
  C      -3.997326      1.354921     -0.926631
  H      -3.344639      2.165222     -0.612362
  H      -3.534387      0.860085     -1.784057
  H      -4.926557      1.809064     -1.275351
  C      -4.300166      0.370223      0.199278
  H      -4.642554      0.921180      1.078536
  H      -5.150809     -0.237681     -0.123615
  C      -3.202640     -0.623193      0.624568
  H      -2.695433     -0.996534     -0.275155
  C      -2.144831     -0.120750      1.621405
  H      -2.614172      0.571262      2.326840
  H      -1.892301     -0.999423      2.214640
  C      -0.814375      0.436708      1.098617
  H      -0.179776      0.596412      1.973300
  H      -0.317180     -0.341339      0.510713
  C      -0.813023      1.735186      0.297807
  H       0.212057      2.087102      0.164629
  H      -1.239954      1.611530     -0.695963
  H      -1.366502      2.526015      0.809927
  O      -3.818490     -1.705424      1.283212
  H      -4.484222     -2.083135      0.731794
21
Coordinates from ORCA-job 6 Relaxed Surface Scan Step 16
  C      -3.756243      0.969334     -1.247822
  H      -2.888603      1.613157     -1.117827
  H      -3.494071      0.201201     -1.979504
  H      -4.548884      1.579349     -1.684648
  C      -4.235509      0.344985      0.060398
  H      -4.478937      1.121959      0.790264
  H      -5.178216     -0.171528     -0.148372
  C      -3.308469     -0.683226      0.722971
  H      -2.924501     -1.356285     -0.056015
  C      -2.119422     -0.128177      1.508205
  H      -2.507977      0.573586      2.251305
  H      -1.734558     -0.973889      2.078219
  C      -0.972895      0.515919      0.703266
  H      -0.031744      0.040990      0.988644
  H      -1.087000      0.302930     -0.361981
  C      -0.826538      2.021862      0.912100
  H      -0.012883      2.427777      0.307275
  H      -1.738382      2.561440      0.648639
  H      -0.606409      2.248446      1.957783
  O      -4.040104     -1.427741      1.663533
  H      -4.775933     -1.844657      1.245700
21
Coordinates from ORCA-job 6 Relaxed Surface Scan Step 17
  C      -3.742985      0.916384     -1.295490
  H      -2.731910      1.316977     -1.348281
  H      -3.802251      0.081585     -1.998054
  H      -4.421214      1.693512     -1.652604
  C      -4.134830      0.471856      0.112264
  H      -4.148815      1.323312      0.797234
  H      -5.167524      0.113347      0.070381
  C      -3.288812     -0.662567      0.713226
  H      -2.971180     -1.321162     -0.106720
  C      -2.044853     -0.253436      1.503759
  H      -2.380556      0.304595      2.382466
  H      -1.632934     -1.187138      1.889175
  C      -0.937789      0.521682      0.772530
  H       0.023332      0.212029      1.188821
  H      -0.902571      0.226260     -0.279994
  C      -1.020835      2.043254      0.888847
  H      -0.202458      2.520431      0.345437
  H      -1.954963      2.445472      0.496639
  H      -0.946696      2.352221      1.933994
  O      -4.054104     -1.402549      1.630438
  H      -4.803334     -1.778631      1.198064
21
Coordinates from ORCA-job 6 Relaxed Surface Scan Step 18
  C      -3.737404      0.841806     -1.340287
  H      -2.687160      1.085960     -1.499989
  H      -3.974133     -0.014946     -1.975898
  H      -4.328081      1.687905     -1.696357
  C      -4.053462      0.540763      0.123567
  H      -3.887487      1.431727      0.731166
  H      -5.120839      0.318121      0.202942
  C      -3.288135     -0.655949      0.716804
  H      -3.052204     -1.343282     -0.106139
  C      -1.991224     -0.339005      1.467443
  H      -2.278145      0.059427      2.445562
  H      -1.530937     -1.305687      1.681666
  C      -0.942885      0.560940      0.794917
  H       0.023018      0.336768      1.248720
  H      -0.834225      0.285677     -0.258425
  C      -1.138566      2.072709      0.922427
  H      -0.261357      2.598158      0.538853
  H      -2.001650      2.446804      0.374835
  H      -1.260814      2.359772      1.969477
  O      -4.077418     -1.336787      1.659445
  H      -4.844173     -1.693448      1.241401
21
Coordinates from ORCA-job 6 Relaxed Surface Scan Step 19
  C      -4.594259      0.186456     -1.504256
  H      -4.089176     -0.456200     -2.230801
  H      -5.452766     -0.359329     -1.107350
  H      -4.986301      1.048448     -2.046410
  C      -3.645319      0.626128     -0.392583
  H      -2.854713      1.246576     -0.823069
  H      -4.186946      1.250855      0.323194
  C      -3.002195     -0.532536      0.371319
  H      -2.427544     -1.140410     -0.340204
  C      -2.073074     -0.073631      1.492229
  H      -2.696287      0.435014      2.232909
  H      -1.708726     -0.972790      1.991111
  C      -0.891572      0.821779      1.062221
  H       0.052438      0.303887      1.237266
  H      -0.916508      0.998147     -0.015012
  C      -0.848564      2.168901      1.779179
  H       0.011612      2.760807      1.459272
  H      -1.749452      2.753778      1.578748
  H      -0.776973      2.036106      2.861239
  O      -3.973531     -1.341796      0.981814
  H      -4.457424     -1.822758      0.331318
21
Coordinates from ORCA-job 6 Relaxed Surface Scan Step 20
  C      -4.593189      0.252193     -1.452596
  H      -4.323911     -0.594432     -2.091547
  H      -5.503643     -0.007773     -0.911048
  H      -4.827414      1.091880     -2.108921
  C      -3.460734      0.608084     -0.494648
  H      -2.601231      0.971972     -1.067459
  H      -3.779143      1.425277      0.158130
  C      -2.991240     -0.568974      0.362250
  H      -2.552789     -1.309857     -0.316196
  C      -1.971605     -0.188765      1.445448
  H      -2.556883      0.164565      2.297699
  H      -1.502393     -1.111808      1.790820
  C      -0.895377      0.856180      1.067757
  H       0.101875      0.471503      1.274081
  H      -0.900415      1.045535     -0.005213
  C      -1.052788      2.187621      1.800788
  H      -0.281868      2.899286      1.497341
  H      -2.023821      2.644390      1.598909
  H      -0.972324      2.051300      2.881679
  O      -4.063134     -1.174911      1.041542
  H      -4.515252     -1.775832      0.473316
21
Coordinates from ORCA-job 6 Relaxed Surface Scan Step 21
  C      -4.534999      0.297047     -1.427905
  H      -4.252204     -0.524842     -2.091437
  H      -5.456425      0.014993     -0.913753
  H      -4.770969      1.158731     -2.054437
  C      -3.418330      0.629713     -0.441154
  H      -2.542623      0.977584     -0.997330
  H      -3.744870      1.446556      0.202904
  C      -3.002407     -0.560947      0.422538
  H      -2.759215     -1.372227     -0.272679
  C      -1.787088     -0.349361      1.356953
  H      -2.173320     -0.297682      2.376669
  H      -1.198161     -1.268547      1.326228
  C      -0.837340      0.833833      1.107962
  H       0.110195      0.606108      1.597426
  H      -0.595893      0.916505      0.044951
  C      -1.295960      2.188609      1.648442
  H      -0.513876      2.938188      1.508767
  H      -2.194884      2.562062      1.161565
  H      -1.503472      2.125260      2.719186
  O      -4.060007     -0.990789      1.243827
  H      -4.735431     -1.393359      0.723408
21
Coordinates from ORCA-job 6 Relaxed Surface Scan Step 22
  C      -4.548725      0.211452     -1.474949
  H      -4.498180     -0.775977     -1.942265
  H      -5.446522      0.248033     -0.854591
  H      -4.682727      0.944703     -2.271806
  C      -3.288333      0.513292     -0.666746
  H      -2.444810      0.577326     -1.353840
  H      -3.389393      1.493849     -0.200543
  C      -2.992489     -0.532392      0.410050
  H      -2.891023     -1.502037     -0.096478
  C      -1.699771     -0.343397      1.240434
  H      -2.008444     -0.450647      2.280286
  H      -1.043738     -1.188507      1.023201
  C      -0.861980      0.935519      1.120030
  H       0.134234      0.691356      1.505366
  H      -0.710785      1.206302      0.072364
  C      -1.400685      2.134183      1.898036
  H      -0.749645      3.002910      1.777914
  H      -2.401447      2.422642      1.575021
  H      -1.457889      1.907326      2.964969
  O      -4.057644     -0.605180      1.327346
  H      -4.827284     -0.953325      0.908333
21
Coordinates from ORCA-job 6 Relaxed Surface Scan Step 23
  C      -4.537491      0.153677     -1.505900
  H      -4.583034     -0.880801     -1.856788
  H      -5.410207      0.335882     -0.874929
  H      -4.637057      0.801465     -2.378287
  C      -3.231403      0.436231     -0.766033
  H      -2.406542      0.350228     -1.472245
  H      -3.233165      1.470170     -0.417222
  C      -2.990873     -0.488150      0.428090
  H      -3.016021     -1.528410      0.067069
  C      -1.636650     -0.346505      1.145030
  H      -1.848424     -0.606592      2.182743
  H      -0.967411     -1.111391      0.744515
  C      -0.879667      0.983726      1.136567
  H       0.134804      0.759135      1.489805
  H      -0.759151      1.351626      0.114243
  C      -1.491480      2.072288      2.014163
  H      -0.905534      2.992709      1.964411
  H      -2.514137      2.307007      1.716723
  H      -1.525508      1.754830      3.058662
  O      -3.995094     -0.301822      1.395900
  H      -4.833236     -0.567871      1.055615
21
Coordinates from ORCA-job 6 Relaxed Surface Scan Step 24
  C      -4.528067      0.110206     -1.526091
  H      -4.638371     -0.945078     -1.789220
  H      -5.378666      0.393162     -0.901601
  H      -4.605712      0.689305     -2.447623
  C      -3.197220      0.375992     -0.826043
  H      -2.383165      0.169613     -1.522707
  H      -3.129149      1.435845     -0.574104
  C      -2.994216     -0.447475      0.445777
  H      -3.116615     -1.510657      0.187737
  C      -1.603058     -0.342828      1.079052
  H      -1.718978     -0.726807      2.094638
  H      -0.944416     -1.031892      0.543642
  C      -0.904755      1.017642      1.151169
  H       0.124316      0.822692      1.474569
  H      -0.817508      1.451056      0.151174
  C      -1.548445      2.027322      2.097563
  H      -0.979768      2.959778      2.115628
  H      -2.572913      2.258194      1.806754
  H      -1.583950      1.638009      3.117395
  O      -3.937920     -0.093355      1.425765
  H      -4.808704     -0.313290      1.138657
