20
Coordinates from ORCA-job 7 Relaxed Surface Scan Step 1
  C      -3.785560      1.060178      0.971753
  H      -4.333902      1.983924      0.779677
  H      -4.271773      0.552355      1.807931
  C      -2.320570      1.350143      1.277606
  H      -1.868912      1.884108      0.437461
  H      -2.248562      2.011156      2.144280
  C      -1.511061      0.077297      1.551155
  H      -1.538872     -0.588247      0.688736
  H      -1.927264     -0.448471      2.411428
  C      -0.062339      0.385751      1.829231
  O       0.805829      0.305496      1.027157
  O       0.127505      0.783159      3.075719
  C       1.438946      1.040613      3.558775
  H       1.292133      1.204344      4.623277
  H       2.057186      0.157319      3.405162
  C       2.078511      2.276918      2.954675
  H       3.018351      2.480571      3.472032
  H       2.286167      2.147690      1.895908
  H       1.427211      3.143127      3.085704
  H      -3.887663      0.423232      0.090340
20
Coordinates from ORCA-job 7 Relaxed Surface Scan Step 2
  C      -3.767917      1.082552      0.966979
  H      -4.296547      2.015062      0.762408
  H      -4.266762      0.594797      1.807548
  C      -2.298210      1.345832      1.273911
  H      -1.833348      1.860230      0.428814
  H      -2.215006      2.015638      2.132659
  C      -1.516265      0.059744      1.565065
  H      -1.557507     -0.615689      0.711157
  H      -1.945113     -0.445968      2.431217
  C      -0.061943      0.340523      1.842821
  O       0.810289      0.211747      1.051298
  O       0.130697      0.774385      3.076747
  C       1.447516      1.037026      3.541646
  H       1.325012      1.147012      4.616232
  H       2.079722      0.175609      3.333485
  C       2.039720      2.307967      2.963489
  H       2.998854      2.510690      3.444252
  H       2.203184      2.219685      1.891959
  H       1.379730      3.156315      3.153493
  H      -3.880742      0.437507      0.092828
20
Coordinates from ORCA-job 7 Relaxed Surface Scan Step 3
  C      -3.751058      1.100326      0.974551
  H      -4.276516      2.043853      0.817917
  H      -4.261148      0.565193      1.778823
  C      -2.285380      1.343385      1.315858
  H      -1.810517      1.905809      0.507249
  H      -2.212007      1.962177      2.212093
  C      -1.509492      0.041219      1.541525
  H      -1.548332     -0.590862      0.655462
  H      -1.947694     -0.507753      2.377308
  C      -0.055247      0.285923      1.851920
  O       0.841447      0.049563      1.114826
  O       0.109994      0.812781      3.053835
  C       1.420635      1.071113      3.537232
  H       1.287036      1.194024      4.609230
  H       2.048897      0.202184      3.351668
  C       2.025997      2.324263      2.937584
  H       2.990513      2.523777      3.408619
  H       2.184125      2.212010      1.866717
  H       1.377481      3.184341      3.112556
  H      -3.853374      0.507341      0.063037
20
Coordinates from ORCA-job 7 Relaxed Surface Scan Step 4
  C      -3.727924      1.127375      0.968565
  H      -4.230526      2.082096      0.804956
  H      -4.255708      0.607071      1.771162
  C      -2.259467      1.338118      1.319398
  H      -1.766532      1.886515      0.511879
  H      -2.178054      1.958551      2.213589
  C      -1.515726      0.019179      1.555123
  H      -1.566087     -0.615945      0.672013
  H      -1.971044     -0.515025      2.391576
  C      -0.057517      0.228362      1.872018
  O       0.838962     -0.070710      1.157618
  O       0.112814      0.802058      3.052341
  C       1.427923      1.070860      3.515566
  H       1.329892      1.141254      4.596263
  H       2.071756      0.228117      3.274923
  C       1.981146      2.359259      2.941933
  H       2.958517      2.567994      3.381020
  H       2.101416      2.285212      1.862038
  H       1.319187      3.196822      3.167535
  H      -3.837666      0.533500      0.058492
20
Coordinates from ORCA-job 7 Relaxed Surface Scan Step 5
  C      -3.709182      1.147019      0.966919
  H      -4.208241      2.110249      0.848513
  H      -4.256538      0.580159      1.723665
  C      -2.249947      1.335047      1.366289
  H      -1.738288      1.930566      0.604769
  H      -2.190107      1.901845      2.296292
  C      -1.513838      0.003656      1.540831
  H      -1.553636     -0.585298      0.625907
  H      -1.986171     -0.575420      2.338426
  C      -0.058348      0.166734      1.897840
  O       0.844620     -0.250008      1.254360
  O       0.101587      0.833530      3.030495
  C       1.413064      1.100495      3.501880
  H       1.320503      1.176073      4.582988
  H       2.055911      0.255537      3.269034
  C       1.966210      2.381362      2.912971
  H       2.946387      2.593858      3.343868
  H       2.081704      2.293728      1.832823
  H       1.306455      3.222839      3.129567
  H      -3.796786      0.608695      0.020572
20
Coordinates from ORCA-job 7 Relaxed Surface Scan Step 6
  C      -3.681909      1.176637      0.954333
  H      -4.155176      2.152325      0.832033
  H      -4.254939      0.620909      1.700305
  C      -2.224808      1.327035      1.377101
  H      -1.687088      1.912500      0.625708
  H      -2.165155      1.889614      2.309322
  C      -1.525935     -0.022785      1.557714
  H      -1.572975     -0.610470      0.642220
  H      -2.022564     -0.591440      2.348637
  C      -0.069115      0.089225      1.930744
  O       0.816345     -0.430366      1.340421
  O       0.110929      0.834393      3.011112
  C       1.427643      1.106119      3.463337
  H       1.377415      1.122131      4.550088
  H       2.083159      0.293141      3.165040
  C       1.923802      2.429552      2.920160
  H       2.913803      2.650099      3.323507
  H       2.000321      2.397201      1.832736
  H       1.250075      3.240937      3.198791
  H      -3.768468      0.643908      0.004699
20
Coordinates from ORCA-job 7 Relaxed Surface Scan Step 7
  C      -3.957707      0.668039      0.749586
  H      -4.470699      0.570284     -0.208525
  H      -4.347913      1.560709      1.244519
  C      -2.448008      0.753756      0.552917
  H      -2.088090     -0.132231      0.028075
  H      -2.206298      1.601495     -0.092034
  C      -1.692494      0.894513      1.867969
  H      -1.897834      0.046279      2.529460
  H      -2.003848      1.783158      2.420497
  C      -0.194165      0.948333      1.707865
  O       0.395181      0.690198      0.714005
  O       0.401228      1.300723      2.834974
  C       1.818361      1.267823      2.898732
  H       2.131587      0.223409      2.921138
  H       2.233274      1.725151      2.003841
  C       2.249345      1.993399      4.151514
  H       3.336468      1.968422      4.240882
  H       1.929366      3.035610      4.123271
  H       1.819182      1.526832      5.038231
  H      -4.231574     -0.195239      1.361091
20
Coordinates from ORCA-job 7 Relaxed Surface Scan Step 8
  C      -3.958660      0.649245      0.752536
  H      -4.466039      0.388787     -0.177732
  H      -4.319389      1.633226      1.062022
  C      -2.445049      0.643221      0.567688
  H      -2.115374     -0.339026      0.224722
  H      -2.163856      1.343455     -0.221197
  C      -1.697273      1.002860      1.844585
  H      -1.938182      0.309397      2.655058
  H      -1.983946      1.991665      2.211297
  C      -0.196858      0.999432      1.694555
  O       0.392980      0.706633      0.710655
  O       0.402509      1.363947      2.815484
  C       1.819595      1.385497      2.846728
  H       2.194505      0.384834      2.634050
  H       2.185275      2.044093      2.060176
  C       2.250126      1.858892      4.214777
  H       3.339146      1.887147      4.273747
  H       1.867514      2.860132      4.415632
  H       1.879146      1.188390      4.990605
  H      -4.270809     -0.071161      1.512620
20
Coordinates from ORCA-job 7 Relaxed Surface Scan Step 9
  C      -3.956569      0.626943      0.758708
  H      -4.460946      0.209011     -0.113997
  H      -4.287623      1.662654      0.867719
  C      -2.441867      0.540042      0.606016
  H      -2.142897     -0.500233      0.461017
  H      -2.126000      1.068769     -0.294562
  C      -1.698115      1.111425      1.805890
  H      -1.967834      0.596950      2.730445
  H      -1.961576      2.160757      1.968857
  C      -0.196731      1.061645      1.673603
  O       0.393961      0.761303      0.692476
  O       0.400401      1.415002      2.799351
  C       1.815233      1.498966      2.821624
  H       2.241886      0.589729      2.402680
  H       2.128550      2.324499      2.181723
  C       2.249700      1.715985      4.251697
  H       3.336305      1.799883      4.302400
  H       1.813596      2.630425      4.655057
  H       1.938105      0.881450      4.880819
  H      -4.302220      0.075459      1.636483
20
Coordinates from ORCA-job 7 Relaxed Surface Scan Step 10
  C      -3.951490      0.609550      0.766363
  H      -4.455553      0.080681     -0.044139
  H      -4.258356      1.657294      0.718872
  C      -2.437630      0.467783      0.650897
  H      -2.162971     -0.589348      0.662961
  H      -2.097923      0.853019     -0.311443
  C      -1.694343      1.190503      1.766731
  H      -1.986416      0.824305      2.752401
  H      -1.935225      2.258173      1.768793
  C      -0.192786      1.096796      1.660220
  O       0.400017      0.713077      0.710063
  O       0.395806      1.520877      2.766368
  C       1.809668      1.622118      2.811270
  H       2.255482      0.814958      2.236202
  H       2.100983      2.558909      2.333414
  C       2.242114      1.593784      4.258410
  H       3.326130      1.698823      4.325163
  H       1.781456      2.408386      4.818024
  H       1.957299      0.651523      4.727983
  H      -4.320900      0.199455      1.709457
20
Coordinates from ORCA-job 7 Relaxed Surface Scan Step 11
  C      -3.941956      0.603808      0.771635
  H      -4.446724      0.024186     -0.002929
  H      -4.232493      1.649566      0.644455
  C      -2.429463      0.431523      0.682547
  H      -2.170258     -0.625200      0.774746
  H      -2.075813      0.739698     -0.302591
  C      -1.685893      1.223693      1.749584
  H      -1.994610      0.932635      2.755875
  H      -1.908258      2.292136      1.674554
  C      -0.185361      1.089910      1.676129
  O       0.406270      0.533355      0.815091
  O       0.396151      1.689303      2.702911
  C       1.811225      1.748600      2.796680
  H       2.250476      1.017135      2.125530
  H       2.122315      2.739101      2.462200
  C       2.216850      1.512910      4.233699
  H       3.300044      1.599240      4.334631
  H       1.749703      2.243937      4.894362
  H       1.919289      0.515660      4.560432
  H      -4.326133      0.269469      1.738467
20
Coordinates from ORCA-job 7 Relaxed Surface Scan Step 12
  C      -3.925121      0.595015      0.778228
  H      -4.425675     -0.021090      0.029521
  H      -4.207113      1.634516      0.593631
  C      -2.413032      0.408161      0.715289
  H      -2.161069     -0.643055      0.866284
  H      -2.047849      0.661181     -0.281759
  C      -1.675474      1.251715      1.746379
  H      -1.999249      1.011973      2.762689
  H      -1.886632      2.316223      1.616405
  C      -0.176478      1.089301      1.710665
  O       0.412206      0.372878      0.974938
  O       0.404564      1.857838      2.618598
  C       1.815806      1.859560      2.775296
  H       2.260759      1.196328      2.040642
  H       2.152393      2.876097      2.574594
  C       2.171651      1.442063      4.185486
  H       3.252361      1.494621      4.329156
  H       1.694496      2.095875      4.916335
  H       1.850631      0.417472      4.378704
  H      -4.321812      0.313992      1.756926
20
Coordinates from ORCA-job 7 Relaxed Surface Scan Step 13
  C      -3.902725      0.583053      0.782318
  H      -4.393853     -0.076382      0.064938
  H      -4.174614      1.610338      0.527646
  C      -2.391076      0.384093      0.759147
  H      -2.147954     -0.656148      0.981393
  H      -2.007377      0.571296     -0.245845
  C      -1.666194      1.287959      1.747375
  H      -2.010917      1.110609      2.770658
  H      -1.865972      2.343361      1.549145
  C      -0.169623      1.103730      1.760470
  O       0.417582      0.265107      1.166093
  O       0.413920      2.001423      2.538729
  C       1.815877      1.958260      2.757210
  H       2.288888      1.381083      1.968793
  H       2.158602      2.989297      2.696606
  C       2.120720      1.364675      4.116594
  H       3.195845      1.391538      4.303425
  H       1.619423      1.925718      4.906227
  H       1.793328      0.325319      4.167681
  H      -4.318519      0.366334      1.769407
20
Coordinates from ORCA-job 7 Relaxed Surface Scan Step 14
  C      -3.883227      0.568012      0.772529
  H      -4.362785     -0.161642      0.118067
  H      -4.126058      1.563386      0.392572
  C      -2.375826      0.344073      0.826147
  H      -2.161094     -0.667511      1.174648
  H      -1.954701      0.408097     -0.179116
  C      -1.667029      1.344255      1.729651
  H      -2.049373      1.293410      2.753318
  H      -1.839140      2.372575      1.403228
  C      -0.175279      1.141656      1.813732
  O       0.421660      0.251293      1.310666
  O       0.397107      2.090754      2.536312
  C       1.794929      2.044278      2.777219
  H       2.297146      1.605626      1.919294
  H       2.102959      3.082860      2.874150
  C       2.108856      1.265717      4.038073
  H       3.181157      1.301357      4.239272
  H       1.583938      1.689308      4.895432
  H       1.818380      0.220447      3.930403
  H      -4.336259      0.472714      1.762407
20
Coordinates from ORCA-job 7 Relaxed Surface Scan Step 15
  C      -3.869876      0.556193      0.747783
  H      -4.345347     -0.250752      0.187918
  H      -4.055976      1.487854      0.207858
  C      -2.376278      0.297721      0.913834
  H      -2.218525     -0.655363      1.422582
  H      -1.904458      0.194151     -0.064674
  C      -1.673695      1.402133      1.692028
  H      -2.102709      1.526335      2.689034
  H      -1.794035      2.371668      1.200649
  C      -0.191718      1.182076      1.862610
  O       0.426214      0.291836      1.384472
  O       0.351237      2.125852      2.613266
  C       1.752819      2.113860      2.840483
  H       2.260987      1.863824      1.911791
  H       1.999291      3.139696      3.104338
  C       2.143184      1.164452      3.953980
  H       3.214268      1.246929      4.148218
  H       1.609065      1.410608      4.873032
  H       1.923676      0.132652      3.683596
  H      -4.372763      0.628940      1.715213
20
Coordinates from ORCA-job 7 Relaxed Surface Scan Step 16
  C      -3.858082      0.541028      0.726877
  H      -4.346053     -0.339989      0.306881
  H      -3.966064      1.354571      0.005320
  C      -2.390623      0.258618      1.029703
  H      -2.312632     -0.582938      1.722413
  H      -1.873038     -0.052039      0.121480
  C      -1.671079      1.463552      1.622897
  H      -2.135956      1.802088      2.549257
  H      -1.721909      2.317601      0.939448
  C      -0.203583      1.230124      1.881414
  O       0.449857      0.386961      1.365458
  O       0.288330      2.113697      2.732614
  C       1.692064      2.165826      2.947717
  H       2.187350      2.152780      1.978189
  H       1.859644      3.140460      3.400234
  C       2.195204      1.065004      3.857784
  H       3.256343      1.220034      4.062452
  H       1.659570      1.083007      4.808436
  H       2.071549      0.085833      3.400360
  H      -4.405530      0.824446      1.629074
20
Coordinates from ORCA-job 7 Relaxed Surface Scan Step 17
  C      -3.671772      0.367976      1.069067
  H      -4.151676     -0.529607      1.462652
  H      -3.728285      0.324509     -0.020859
  C      -2.227446      0.467402      1.546665
  H      -2.197254      0.476060      2.637127
  H      -1.676210     -0.421294      1.226390
  C      -1.518026      1.716446      1.015231
  H      -2.030875      2.611658      1.375467
  H      -1.526492      1.735167     -0.073447
  C      -0.077436      1.809706      1.448559
  O       0.850635      1.815056      0.712400
  O       0.038226      1.890401      2.764637
  C       1.328773      2.001105      3.345405
  H       1.934034      2.675008      2.743550
  H       1.158423      2.459860      4.316611
  C       2.001076      0.652358      3.497409
  H       2.954461      0.772646      4.015350
  H       1.377191     -0.025137      4.082517
  H       2.195498      0.201909      2.524987
  H      -4.257483      1.229436      1.398292
20
Coordinates from ORCA-job 7 Relaxed Surface Scan Step 18
  C      -3.735470      0.445910      1.043474
  H      -4.312416     -0.351423      1.514934
  H      -3.725056      0.256906     -0.032341
  C      -2.322033      0.505302      1.612147
  H      -2.361695      0.662688      2.690286
  H      -1.827390     -0.457989      1.458394
  C      -1.481006      1.610359      0.972084
  H      -1.937966      2.586556      1.166174
  H      -1.424394      1.488338     -0.108633
  C      -0.062244      1.698868      1.475487
  O       0.889228      1.801563      0.777027
  O       0.005242      1.689354      2.796364
  C       1.253558      1.928240      3.431757
  H       1.714189      2.797545      2.965681
  H       0.990724      2.190262      4.454018
  C       2.169795      0.722786      3.411425
  H       3.065803      0.938140      3.996842
  H       1.672855     -0.141177      3.855968
  H       2.472700      0.473765      2.396696
  H      -4.269064      1.384670      1.210225
20
Coordinates from ORCA-job 7 Relaxed Surface Scan Step 19
  C      -3.795663      0.537714      1.020786
  H      -4.459439     -0.152661      1.543911
  H      -3.756544      0.230906     -0.026928
  C      -2.407660      0.543595      1.652234
  H      -2.479258      0.819544      2.704386
  H      -1.992254     -0.467620      1.628579
  C      -1.449728      1.498298      0.943143
  H      -1.823503      2.528160      1.006428
  H      -1.364291      1.263382     -0.117269
  C      -0.044312      1.555206      1.488805
  O       0.914491      1.725934      0.814330
  O       0.000973      1.458847      2.806577
  C       1.188762      1.826621      3.498716
  H       1.454766      2.831472      3.171426
  H       0.877078      1.890662      4.538738
  C       2.325987      0.837653      3.354609
  H       3.142143      1.133615      4.016829
  H       1.997232     -0.160555      3.649244
  H       2.699138      0.800313      2.334910
  H      -4.252559      1.529580      1.058555
20
Coordinates from ORCA-job 7 Relaxed Surface Scan Step 20
  C      -3.839955      0.638776      1.012999
  H      -4.566975      0.040456      1.564677
  H      -3.812960      0.264970     -0.013141
  C      -2.465020      0.567693      1.668837
  H      -2.527450      0.912693      2.701019
  H      -2.136109     -0.473905      1.715120
  C      -1.421099      1.392811      0.921444
  H      -1.703765      2.454840      0.913669
  H      -1.344144      1.090100     -0.122552
  C      -0.019655      1.380607      1.481508
  O       0.944233      1.531674      0.810760
  O       0.014721      1.256182      2.797948
  C       1.134021      1.727645      3.543787
  H       1.201324      2.798131      3.344325
  H       0.816021      1.615771      4.577811
  C       2.433942      0.983087      3.324097
  H       3.161014      1.324832      4.063829
  H       2.282699     -0.087794      3.470985
  H       2.836328      1.146286      2.329551
  H      -4.211808      1.665810      0.981338
20
Coordinates from ORCA-job 7 Relaxed Surface Scan Step 21
  C      -3.861339      0.744624      1.006988
  H      -4.641216      0.244997      1.584127
  H      -3.858368      0.307838      0.005666
  C      -2.502634      0.597374      1.683744
  H      -2.543827      1.007848      2.692761
  H      -2.263878     -0.463442      1.796663
  C      -1.386622      1.284368      0.902134
  H      -1.576273      2.364771      0.828688
  H      -1.330404      0.916287     -0.122087
  C       0.007494      1.188544      1.475199
  O       0.978992      1.234702      0.801509
  O       0.022667      1.105559      2.796140
  C       1.082812      1.625189      3.598195
  H       0.964992      2.710037      3.566888
  H       0.811531      1.311335      4.603363
  C       2.487891      1.155627      3.283101
  H       3.143406      1.486550      4.091799
  H       2.524527      0.066309      3.242521
  H       2.859487      1.546513      2.342083
  H      -4.143877      1.795636      0.908526
20
Coordinates from ORCA-job 7 Relaxed Surface Scan Step 22
  C      -3.859150      0.684624      0.643644
  H      -4.630324     -0.078153      0.763313
  H      -3.612001      0.741898     -0.419204
  C      -2.629235      0.351472      1.480715
  H      -2.916266      0.257349      2.531619
  H      -2.226451     -0.618335      1.187451
  C      -1.528638      1.402489      1.353384
  H      -1.874742      2.383594      1.676900
  H      -1.225548      1.497490      0.306088
  C      -0.283130      1.042877      2.129281
  O       0.136726     -0.060409      2.232580
  O       0.292174      2.108914      2.656988
  C       1.397953      2.017929      3.542290
  H       1.765395      3.037084      3.630722
  H       1.037993      1.680580      4.514657
  C       2.573781      1.177033      3.066567
  H       3.422849      1.387248      3.720945
  H       2.369311      0.112474      3.083768
  H       2.858350      1.460546      2.051488
  H      -4.293683      1.643960      0.934814
20
Coordinates from ORCA-job 7 Relaxed Surface Scan Step 23
  C      -3.789616      0.644513      0.525819
  H      -4.406978     -0.234339      0.332983
  H      -3.520113      1.078338     -0.440216
  C      -2.552097      0.273984      1.336010
  H      -2.846689     -0.187498      2.279473
  H      -1.972987     -0.482536      0.801596
  C      -1.660170      1.474055      1.626106
  H      -2.207872      2.241987      2.182850
  H      -1.320845      1.958219      0.708533
  C      -0.445040      1.145019      2.456919
  O      -0.282599      0.131019      3.046911
  O       0.414814      2.148705      2.466468
  C       1.547601      2.137069      3.323213
  H       2.034967      3.087636      3.122402
  H       1.212271      2.108357      4.359672
  C       2.546546      1.030447      3.030992
  H       3.449859      1.211431      3.617513
  H       2.157915      0.048072      3.280938
  H       2.824661      1.042325      1.975319
  H      -4.408267      1.373863      1.054508
20
Coordinates from ORCA-job 7 Relaxed Surface Scan Step 24
  C      -3.780630      0.641089      0.515726
  H      -4.414053     -0.231589      0.348628
  H      -3.484753      1.027653     -0.462601
  C      -2.565959      0.278492      1.363276
  H      -2.887242     -0.135462      2.320034
  H      -1.995082     -0.512844      0.872324
  C      -1.652271      1.470184      1.618015
  H      -2.191885      2.274495      2.128700
  H      -1.285383      1.905228      0.686353
  C      -0.458581      1.150645      2.482727
  O      -0.317809      0.151592      3.103100
  O       0.412997      2.143779      2.483767
  C       1.541182      2.116813      3.346808
  H       1.996396      3.093626      3.204768
  H       1.202908      2.015422      4.377260
  C       2.561214      1.050476      2.990013
  H       3.454908      1.196353      3.600322
  H       2.179977      0.048316      3.165386
  H       2.851387      1.141008      1.941537
  H      -4.391961      1.405390      1.001864
