24
Coordinates from ORCA-job 1 Relaxed Surface Scan Step 1
  C      -2.318532     -0.561187     -0.440627
  H      -1.462009     -3.029053     -1.617829
  C      -1.077901      0.340576     -0.405355
  H      -1.128966      1.079673     -1.206752
  H      -1.025068      0.869160      0.543539
  H      -0.158343     -0.231020     -0.537493
  C      -3.611027      0.278296     -0.437707
  H      -3.614198      0.794059     -1.407255
  C      -4.881241     -0.558664     -0.349138
  H      -4.949857     -1.061290      0.615100
  H      -5.760795      0.080620     -0.460359
  H      -4.917923     -1.307144     -1.145073
  C      -2.268653     -1.575462      0.699219
  O      -2.529820     -1.309585      1.815415
  O      -1.968008     -2.840530      0.380978
  O      -3.545379      1.222484      0.584154
  H      -4.338845      1.732758      0.606081
  C      -1.047691     -3.208148     -0.621556
  H      -2.337176     -1.105888     -1.380842
  H      -0.141717     -2.608227     -0.533815
  C      -0.720616     -4.672693     -0.440782
  H      -0.001787     -4.992705     -1.197055
  H      -0.294571     -4.847917      0.546847
  H      -1.620644     -5.279836     -0.537907
24
Coordinates from ORCA-job 1 Relaxed Surface Scan Step 2
  C      -2.439101     -0.620562     -0.525899
  H      -1.051941     -2.664205     -1.344423
  C      -1.158114      0.214399     -0.682275
  H      -1.219163      0.817133     -1.588863
  H      -1.049706      0.892307      0.162347
  H      -0.259890     -0.397872     -0.751370
  C      -3.675685      0.303713     -0.460671
  H      -3.632414      0.914725     -1.364399
  C      -5.003643     -0.446348     -0.475893
  H      -5.123984     -1.069429      0.410243
  H      -5.820862      0.275006     -0.494862
  H      -5.088679     -1.080791     -1.361256
  C      -2.341166     -1.514606      0.704872
  O      -2.881530     -1.244814      1.725545
  O      -1.638740     -2.635029      0.644932
  O      -3.597489      1.200732      0.600063
  H      -3.587469      0.704242      1.407450
  C      -0.760606     -3.062146     -0.375532
  H      -2.568550     -1.258353     -1.403286
  H       0.237407     -2.686102     -0.148292
  C      -0.764776     -4.573723     -0.397259
  H      -0.060236     -4.939018     -1.146130
  H      -0.476036     -4.969112      0.576115
  H      -1.758395     -4.951873     -0.639371
24
Coordinates from ORCA-job 1 Relaxed Surface Scan Step 3
  C      -2.546688     -0.699413     -0.584686
  H      -0.675842     -2.552173     -1.199884
  C      -1.238754      0.067287     -0.852760
  H      -1.324154      0.612708     -1.793005
  H      -1.080945      0.796364     -0.060297
  H      -0.354914     -0.560142     -0.917834
  C      -3.681641      0.339915     -0.414613
  H      -3.612432      0.989118     -1.289181
  C      -5.088095     -0.248596     -0.400291
  H      -5.247997     -0.899048      0.457888
  H      -5.812949      0.564725     -0.352449
  H      -5.280457     -0.820742     -1.310907
  C      -2.460923     -1.623348      0.629922
  O      -3.095218     -1.424249      1.610970
  O      -1.719063     -2.720730      0.590206
  O      -3.443756      1.169201      0.680526
  H      -3.520069      0.645845      1.466573
  C      -0.624224     -3.050877     -0.238269
  H      -2.821422     -1.331381     -1.439824
  H       0.285363     -2.705965      0.255966
  C      -0.599465     -4.552320     -0.409178
  H       0.268014     -4.847184     -1.001815
  H      -0.543799     -5.044482      0.561273
  H      -1.501338     -4.896237     -0.916547
24
Coordinates from ORCA-job 1 Relaxed Surface Scan Step 4
  C      -2.604970     -0.440045     -0.953486
  H      -0.050998     -2.936519      0.910280
  C      -1.517295      0.498353     -1.493727
  H      -1.922770      1.112862     -2.298401
  H      -1.156478      1.162752     -0.710482
  H      -0.674625     -0.067635     -1.893822
  C      -3.814320      0.337971     -0.399098
  H      -4.177509      0.961051     -1.218680
  C      -4.958521     -0.569798      0.040856
  H      -4.664602     -1.204529      0.879263
  H      -5.800005      0.041377      0.367452
  H      -5.294706     -1.210831     -0.776838
  C      -1.991458     -1.348998      0.091611
  O      -1.887087     -1.072657      1.245150
  O      -1.549673     -2.479233     -0.414694
  O      -3.447982      1.221399      0.612935
  H      -3.008475      0.736194      1.298332
  C      -0.913150     -3.412557      0.446723
  H      -2.948250     -1.077182     -1.768846
  H      -1.603607     -3.686818      1.242839
  C      -0.511064     -4.610638     -0.379577
  H      -0.017562     -5.348944      0.253993
  H      -1.384188     -5.076839     -0.837146
  H       0.178529     -4.320458     -1.172850
24
Coordinates from ORCA-job 1 Relaxed Surface Scan Step 5
  C      -2.646703     -0.476248     -0.940292
  H      -0.095948     -2.926627      0.971794
  C      -1.522028      0.399819     -1.510440
  H      -1.908866      1.021703     -2.318517
  H      -1.119643      1.058684     -0.742481
  H      -0.713894     -0.212462     -1.912193
  C      -3.810336      0.369126     -0.388544
  H      -4.138061      1.008665     -1.210287
  C      -5.005433     -0.468836      0.054720
  H      -4.748612     -1.118649      0.893134
  H      -5.809460      0.191911      0.379414
  H      -5.379415     -1.089677     -0.762230
  C      -2.061847     -1.400205      0.108529
  O      -2.034598     -1.169702      1.276031
  O      -1.544049     -2.490403     -0.414872
  O      -3.391871      1.235476      0.618743
  H      -3.012525      0.723740      1.320371
  C      -0.907226     -3.425452      0.444336
  H      -3.027261     -1.110555     -1.742012
  H      -1.623658     -3.764790      1.190835
  C      -0.401801     -4.568571     -0.402794
  H       0.093462     -5.307301      0.228873
  H      -1.224803     -5.057264     -0.925088
  H       0.313807     -4.214108     -1.145242
24
Coordinates from ORCA-job 1 Relaxed Surface Scan Step 6
  C      -2.701584     -0.521937     -0.932703
  H      -0.200397     -2.931120      1.075065
  C      -1.541428      0.273929     -1.548140
  H      -1.913100      0.908187     -2.353621
  H      -1.079002      0.918335     -0.801448
  H      -0.784152     -0.391506     -1.962053
  C      -3.793094      0.405732     -0.366011
  H      -4.071985      1.078335     -1.179164
  C      -5.051784     -0.334729      0.074474
  H      -4.847109     -1.016898      0.900567
  H      -5.795502      0.387634      0.411809
  H      -5.480869     -0.908434     -0.749911
  C      -2.152098     -1.471657      0.113059
  O      -2.227912     -1.308949      1.289312
  O      -1.540143     -2.506805     -0.421591
  O      -3.298451      1.226884      0.645974
  H      -3.000903      0.678517      1.358937
  C      -0.918893     -3.449352      0.441398
  H      -3.142422     -1.143976     -1.714427
  H      -1.675521     -3.883965      1.092995
  C      -0.253350     -4.499275     -0.415587
  H       0.231413     -5.242661      0.218775
  H      -0.985022     -5.006931     -1.044767
  H       0.502536     -4.051081     -1.061157
24
Coordinates from ORCA-job 1 Relaxed Surface Scan Step 7
  C      -2.770010     -0.574931     -0.936314
  H      -0.404382     -2.984739      1.218664
  C      -1.589009      0.124200     -1.623436
  H      -1.956066      0.780551     -2.413106
  H      -1.040010      0.737381     -0.908981
  H      -0.906785     -0.597382     -2.069707
  C      -3.752446      0.443708     -0.323800
  H      -3.961539      1.171863     -1.109190
  C      -5.084260     -0.163995      0.104319
  H      -4.954612     -0.899828      0.897786
  H      -5.736296      0.626363      0.477585
  H      -5.583066     -0.647881     -0.738277
  C      -2.259975     -1.566520      0.092296
  O      -2.470182     -1.503030      1.260911
  O      -1.530964     -2.524816     -0.438965
  O      -3.158412      1.170998      0.708376
  H      -2.969981      0.577217      1.421585
  C      -0.957050     -3.493837      0.429170
  H      -3.303974     -1.166949     -1.685218
  H      -1.758584     -4.057352      0.905245
  C      -0.063633     -4.389109     -0.395410
  H       0.385909     -5.151980      0.241781
  H      -0.632277     -4.887238     -1.181167
  H       0.736835     -3.814417     -0.862359
24
Coordinates from ORCA-job 1 Relaxed Surface Scan Step 8
  C      -2.853448     -0.634814     -0.956181
  H      -0.682726     -3.104204      1.341939
  C      -1.680163     -0.042117     -1.743803
  H      -2.053860      0.651138     -2.498074
  H      -1.017918      0.513076     -1.078686
  H      -1.103687     -0.815482     -2.246393
  C      -3.675996      0.469551     -0.254135
  H      -3.769469      1.280838     -0.977130
  C      -5.087057      0.047349      0.140655
  H      -5.077045     -0.765161      0.865697
  H      -5.604994      0.898720      0.584167
  H      -5.654890     -0.277144     -0.734027
  C      -2.390403     -1.692419      0.030873
  O      -2.792534     -1.788519      1.145115
  O      -1.495013     -2.522283     -0.458511
  O      -2.974182      1.015443      0.823201
  H      -2.945305      0.373860      1.518488
  C      -0.996311     -3.545667      0.395243
  H      -3.515352     -1.161466     -1.653305
  H      -1.805201     -4.241506      0.615753
  C       0.146319     -4.230768     -0.315073
  H       0.544573     -5.030954      0.310407
  H      -0.186616     -4.664073     -1.258651
  H       0.950510     -3.525124     -0.525782
24
Coordinates from ORCA-job 1 Relaxed Surface Scan Step 9
  C      -2.959175     -0.700764     -1.021186
  H      -0.998029     -3.252110      1.390765
  C      -1.807515     -0.208902     -1.897750
  H      -2.165472      0.568862     -2.573660
  H      -1.012670      0.215289     -1.283720
  H      -1.384352     -1.012334     -2.496854
  C      -3.552952      0.450018     -0.168930
  H      -3.478836      1.350462     -0.778879
  C      -5.017184      0.268828      0.209820
  H      -5.165033     -0.621893      0.818442
  H      -5.354263      1.140216      0.773352
  H      -5.639416      0.180382     -0.682897
  C      -2.578988     -1.865374     -0.120825
  O      -3.232064     -2.210534      0.810368
  O      -1.463065     -2.473847     -0.454338
  O      -2.753343      0.699454      0.951849
  H      -2.940758      0.052513      1.616237
  C      -1.030530     -3.565614      0.347048
  H      -3.758020     -1.088891     -1.662856
  H      -1.763282     -4.368175      0.272686
  C       0.325981     -4.002225     -0.151831
  H       0.685287     -4.844375      0.441337
  H       0.274498     -4.313121     -1.195734
  H       1.048413     -3.189590     -0.070657
24
Coordinates from ORCA-job 1 Relaxed Surface Scan Step 10
  C      -3.036417     -0.719272     -1.138923
  H      -1.363390     -3.400707      1.342876
  C      -1.889882     -0.270616     -2.042386
  H      -2.207489      0.582193     -2.644529
  H      -1.027017      0.029190     -1.449510
  H      -1.576345     -1.064392     -2.719413
  C      -3.434554      0.397164     -0.139332
  H      -3.326745      1.341247     -0.674152
  C      -4.865624      0.307188      0.370691
  H      -5.041780     -0.627504      0.902335
  H      -5.063536      1.142900      1.044088
  H      -5.574807      0.361118     -0.456583
  C      -2.744076     -1.993318     -0.364657
  O      -3.562096     -2.561626      0.282993
  O      -1.499456     -2.408719     -0.449272
  O      -2.513654      0.458923      0.916044
  H      -2.782394     -0.120156      1.613051
  C      -1.123449     -3.559873      0.291331
  H      -3.915865     -0.947693     -1.746538
  H      -1.712949     -4.409563     -0.050371
  C       0.354880     -3.786713      0.083754
  H       0.676959     -4.667595      0.641082
  H       0.578434     -3.945679     -0.971627
  H       0.930482     -2.928220      0.430835
24
Coordinates from ORCA-job 1 Relaxed Surface Scan Step 11
  C      -3.073237     -0.678188     -1.237947
  H      -1.770848     -3.702760      1.200828
  C      -1.894425     -0.264267     -2.118633
  H      -2.148146      0.644069     -2.667472
  H      -1.007460     -0.065918     -1.522586
  H      -1.653574     -1.039044     -2.848035
  C      -3.409643      0.414936     -0.194919
  H      -3.566669      1.330925     -0.765422
  C      -4.669199      0.142430      0.616924
  H      -4.562125     -0.741543      1.247073
  H      -4.871484      0.998922      1.260573
  H      -5.531099     -0.019194     -0.031311
  C      -2.880413     -2.031344     -0.575160
  O      -3.766036     -2.776578     -0.317984
  O      -1.617458     -2.290988     -0.281981
  O      -2.320524      0.691731      0.637296
  H      -2.100521     -0.062868      1.161704
  C      -1.281811     -3.567648      0.238720
  H      -3.955745     -0.809048     -1.863801
  H      -1.666197     -4.334521     -0.431992
  C       0.221271     -3.641066      0.366191
  H       0.512428     -4.613295      0.766353
  H       0.699408     -3.509775     -0.604843
  H       0.592738     -2.866691      1.038210
24
Coordinates from ORCA-job 1 Relaxed Surface Scan Step 12
  C      -3.125055     -0.654091     -1.309165
  H      -2.027635     -3.877375      0.955004
  C      -1.992989     -0.251946     -2.257170
  H      -2.224143      0.709047     -2.718902
  H      -1.047256     -0.154873     -1.730267
  H      -1.871630     -0.985068     -3.056851
  C      -3.321845      0.379804     -0.175838
  H      -3.558700      1.324238     -0.668030
  C      -4.468286      0.036277      0.767661
  H      -4.266946     -0.877883      1.330249
  H      -4.599585      0.846984      1.484379
  H      -5.403228     -0.106408      0.224071
  C      -2.939188     -2.053082     -0.754130
  O      -3.774800     -2.891199     -0.740457
  O      -1.724729     -2.239933     -0.250198
  O      -2.142339      0.618391      0.532812
  H      -1.763002     -0.198800      0.819417
  C      -1.351416     -3.544237      0.172057
  H      -4.054330     -0.704953     -1.874029
  H      -1.464954     -4.227780     -0.668212
  C       0.078503     -3.491169      0.654532
  H       0.397988     -4.483854      0.974563
  H       0.744267     -3.153668     -0.140186
  H       0.180529     -2.810144      1.500478
24
Coordinates from ORCA-job 1 Relaxed Surface Scan Step 13
  C      -3.152498     -0.637884     -1.352025
  H      -2.148306     -3.936177      0.812785
  C      -2.082375     -0.213057     -2.362661
  H      -2.313845      0.779623     -2.751053
  H      -1.096759     -0.172994     -1.904853
  H      -2.048001     -0.903033     -3.207808
  C      -3.256524      0.350806     -0.169567
  H      -3.554993      1.306789     -0.602783
  C      -4.308594     -0.053676      0.856842
  H      -4.039841     -0.986644      1.358454
  H      -4.388003      0.720827      1.619674
  H      -5.287058     -0.190443      0.393770
  C      -2.929349     -2.064810     -0.892503
  O      -3.678085     -2.961811     -1.075837
  O      -1.777324     -2.214276     -0.244803
  O      -2.023892      0.587988      0.439395
  H      -1.621909     -0.235755      0.671714
  C      -1.387231     -3.521326      0.155562
  H      -4.119590     -0.657452     -1.852512
  H      -1.337400     -4.156321     -0.727555
  C      -0.047273     -3.422642      0.844816
  H       0.284372     -4.415327      1.152102
  H       0.703597     -3.000186      0.176487
  H      -0.109886     -2.793942      1.734145
24
Coordinates from ORCA-job 1 Relaxed Surface Scan Step 14
  C      -3.170396     -0.631417     -1.376131
  H      -2.219892     -3.991902      0.683843
  C      -2.180706     -0.167567     -2.451775
  H      -2.436254      0.839983     -2.782118
  H      -1.162406     -0.145172     -2.068663
  H      -2.215426     -0.826185     -3.321042
  C      -3.201397      0.328090     -0.168439
  H      -3.547980      1.286622     -0.558197
  C      -4.171129     -0.115540      0.921396
  H      -3.856732     -1.057854      1.376459
  H      -4.203233      0.637507      1.708832
  H      -5.179854     -0.249394      0.526779
  C      -2.884756     -2.072809     -1.003404
  O      -3.521151     -3.001263     -1.365828
  O      -1.807759     -2.202804     -0.233667
  O      -1.932137      0.578083      0.352635
  H      -1.521816     -0.243907      0.576128
  C      -1.403476     -3.511837      0.146822
  H      -4.171019     -0.652648     -1.807418
  H      -1.214354     -4.095777     -0.752180
  C      -0.165558     -3.392314      1.003344
  H       0.174086     -4.384681      1.302727
  H       0.640994     -2.904095      0.455284
  H      -0.368418     -2.814843      1.906402
24
Coordinates from ORCA-job 1 Relaxed Surface Scan Step 15
  C      -3.178794     -0.633854     -1.387869
  H      -2.251317     -4.059065      0.552684
  C      -2.293913     -0.119460     -2.531503
  H      -2.602399      0.886657     -2.817853
  H      -1.248835     -0.073505     -2.228932
  H      -2.380565     -0.763939     -3.406857
  C      -3.149955      0.311155     -0.171167
  H      -3.529598      1.268333     -0.532472
  C      -4.053345     -0.146460      0.969176
  H      -3.714519     -1.093196      1.394691
  H      -4.040867      0.599068      1.764444
  H      -5.083579     -0.273771      0.631386
  C      -2.810302     -2.076050     -1.093569
  O      -3.310960     -3.008659     -1.621162
  O      -1.826965     -2.203020     -0.208113
  O      -1.854786      0.574048      0.274619
  H      -1.441242     -0.242866      0.509832
  C      -1.402046     -3.514425      0.141551
  H      -4.208946     -0.684506     -1.742624
  H      -1.083033     -4.033909     -0.759924
  C      -0.278242     -3.394337      1.143081
  H       0.071316     -4.387738      1.427177
  H       0.562702     -2.843483      0.720054
  H      -0.610581     -2.878741      2.045137
24
Coordinates from ORCA-job 1 Relaxed Surface Scan Step 16
  C      -3.176887     -0.643302     -1.393452
  H      -2.242419     -4.142213      0.399401
  C      -2.430773     -0.071524     -2.607590
  H      -2.827288      0.912534     -2.859999
  H      -1.368691      0.043124     -2.393179
  H      -2.549388     -0.721855     -3.473678
  C      -3.094807      0.300134     -0.179343
  H      -3.494863      1.254955     -0.524049
  C      -3.942930     -0.149164      1.006203
  H      -3.594775     -1.098105      1.416307
  H      -3.885283      0.599498      1.796745
  H      -4.989907     -0.264409      0.718847
  C      -2.706554     -2.070850     -1.169616
  O      -3.046794     -2.979598     -1.846465
  O      -1.844618     -2.214794     -0.169688
  O      -1.778887      0.570076      0.198254
  H      -1.367831     -0.238786      0.463037
  C      -1.383643     -3.525544      0.135533
  H      -4.230659     -0.749462     -1.658639
  H      -0.928446     -3.956765     -0.753581
  C      -0.397696     -3.425651      1.274998
  H      -0.028785     -4.419409      1.532008
  H       0.456133     -2.805775      0.998289
  H      -0.864978     -2.994840      2.161447
24
Coordinates from ORCA-job 1 Relaxed Surface Scan Step 17
  C      -3.165485     -0.659646     -1.396016
  H      -2.176140     -4.235409      0.198533
  C      -2.604374     -0.031941     -2.679222
  H      -3.126408      0.900103     -2.898379
  H      -1.545088      0.197777     -2.563664
  H      -2.730320     -0.705245     -3.525125
  C      -3.027340      0.294478     -0.194762
  H      -3.435371      1.248068     -0.532497
  C      -3.825127     -0.124088      1.036293
  H      -3.478836     -1.073715      1.443392
  H      -3.717408      0.636449      1.810371
  H      -4.886467     -0.220406      0.798652
  C      -2.571363     -2.052369     -1.237159
  O      -2.717565     -2.907501     -2.041973
  O      -1.865433     -2.237731     -0.129321
  O      -1.691759      0.559491      0.114266
  H      -1.290314     -0.236882      0.426784
  C      -1.343360     -3.536829      0.123664
  H      -4.231692     -0.847240     -1.549493
  H      -0.730370     -3.843238     -0.721227
  C      -0.544170     -3.484067      1.403902
  H      -0.136278     -4.471378      1.624348
  H       0.287908     -2.784038      1.316540
  H      -1.168010     -3.176368      2.243878
24
Coordinates from ORCA-job 1 Relaxed Surface Scan Step 18
  C      -3.150234     -0.687170     -1.391661
  H      -1.985836     -4.321271     -0.093090
  C      -2.836266     -0.026586     -2.737984
  H      -3.500503      0.822786     -2.901547
  H      -1.809587      0.340876     -2.750081
  H      -2.964575     -0.729944     -3.557340
  C      -2.941221      0.299402     -0.223243
  H      -3.346647      1.250944     -0.567969
  C      -3.680086     -0.058130      1.062091
  H      -3.338238     -1.002911      1.481737
  H      -3.513736      0.726482      1.801306
  H      -4.754535     -0.132931      0.882877
  C      -2.398983     -2.009069     -1.294562
  O      -2.286631     -2.760537     -2.201598
  O      -1.898098     -2.273885     -0.095204
  O      -1.584380      0.545284      0.003799
  H      -1.197410     -0.223270      0.394060
  C      -1.262621     -3.530929      0.102735
  H      -4.204285     -0.984569     -1.395706
  H      -0.455488     -3.637762     -0.619210
  C      -0.752474     -3.584713      1.523151
  H      -0.262352     -4.542606      1.702091
  H      -0.026833     -2.791778      1.709729
  H      -1.569749     -3.479437      2.237405
24
Coordinates from ORCA-job 1 Relaxed Surface Scan Step 19
  C      -3.133460     -0.723219     -1.367363
  H      -1.650309     -4.327124     -0.408227
  C      -3.104028     -0.099468     -2.761859
  H      -3.882088      0.660371     -2.847819
  H      -2.139645      0.375802     -2.944077
  H      -3.263805     -0.847881     -3.534701
  C      -2.854896      0.333538     -0.269299
  H      -3.260829      1.271926     -0.646169
  C      -3.522841      0.061131      1.072755
  H      -3.173987     -0.869076      1.518723
  H      -3.302209      0.880532      1.758443
  H      -4.606525     -0.002968      0.958371
  C      -2.191544     -1.915157     -1.312527
  O      -1.742231     -2.460460     -2.260814
  O      -1.939122     -2.325602     -0.075598
  O      -1.481479      0.563812     -0.130656
  H      -1.098612     -0.131407      0.382005
  C      -1.154386     -3.497762      0.093994
  H      -4.127889     -1.146659     -1.189094
  H      -0.189007     -3.353440     -0.387935
  C      -1.006260     -3.756760      1.574610
  H      -0.411793     -4.657350      1.734176
  H      -0.503989     -2.924804      2.070281
  H      -1.979833     -3.899697      2.044568
24
Coordinates from ORCA-job 1 Relaxed Surface Scan Step 20
  C      -3.111940     -0.739804     -1.335341
  H      -1.497212     -4.311698     -0.552636
  C      -3.203737     -0.195321     -2.758561
  H      -4.052959      0.484276     -2.845176
  H      -2.296253      0.350220     -3.014384
  H      -3.329717     -0.996867     -3.484412
  C      -2.882016      0.404902     -0.316275
  H      -3.466012      1.248674     -0.683660
  C      -3.344930      0.121019      1.106496
  H      -2.792706     -0.701970      1.557326
  H      -3.201197      1.014928      1.715339
  H      -4.405022     -0.136680      1.124859
  C      -2.042728     -1.815380     -1.255479
  O      -1.338739     -2.143615     -2.147574
  O      -1.991018     -2.389324     -0.060511
  O      -1.551941      0.840515     -0.350004
  H      -1.014449      0.294499      0.202969
  C      -1.147553     -3.517847      0.107732
  H      -4.047243     -1.241611     -1.069417
  H      -0.134215     -3.260680     -0.194569
  C      -1.208271     -3.941539      1.556283
  H      -0.584367     -4.823069      1.710466
  H      -0.846471     -3.147915      2.211409
  H      -2.230073     -4.187437      1.846906
24
Coordinates from ORCA-job 1 Relaxed Surface Scan Step 21
  C      -3.150752     -0.719715     -1.073641
  H      -0.390634     -3.559093     -0.340331
  C      -3.381472     -0.619640     -2.583200
  H      -4.259625     -0.004946     -2.785418
  H      -2.526227     -0.165776     -3.078408
  H      -3.553218     -1.604980     -3.020395
  C      -2.943051      0.673414     -0.429516
  H      -3.843995      1.248922     -0.649609
  C      -2.780644      0.611018      1.085887
  H      -1.867737      0.081776      1.369520
  H      -2.707233      1.623592      1.482488
  H      -3.627462      0.111279      1.559709
  C      -1.942528     -1.582059     -0.779289
  O      -0.856915     -1.328742     -1.194901
  O      -2.187275     -2.607343      0.006020
  O      -1.890077      1.372962     -1.016240
  H      -1.129493      0.812017     -1.086891
  C      -1.095218     -3.392790      0.471043
  H      -4.017949     -1.182945     -0.604878
  H      -0.572669     -2.826177      1.242451
  C      -1.647286     -4.686576      1.019935
  H      -0.833927     -5.301974      1.407017
  H      -2.351760     -4.496210      1.830001
  H      -2.163623     -5.247738      0.240434
24
Coordinates from ORCA-job 1 Relaxed Surface Scan Step 22
  C      -3.135066     -0.717239     -1.066438
  H      -0.448841     -3.672726     -0.442194
  C      -3.354081     -0.627429     -2.578929
  H      -4.239321     -0.026782     -2.791978
  H      -2.501146     -0.162477     -3.068095
  H      -3.507218     -1.617321     -3.012828
  C      -2.959474      0.680097     -0.425660
  H      -3.870761      1.236745     -0.651731
  C      -2.803724      0.623569      1.090723
  H      -1.881885      0.112496      1.378985
  H      -2.752317      1.637700      1.486817
  H      -3.643116      0.108031      1.560989
  C      -1.919014     -1.565551     -0.762189
  O      -0.822349     -1.279636     -1.125536
  O      -2.176700     -2.629680     -0.035221
  O      -1.918847      1.398950     -1.009577
  H      -1.141968      0.858035     -1.056008
  C      -1.090437     -3.436070      0.403519
  H      -3.998252     -1.194446     -0.604155
  H      -0.494318     -2.858868      1.110235
  C      -1.660181     -4.678033      1.045680
  H      -0.850283     -5.313623      1.406359
  H      -2.299244     -4.420181      1.890602
  H      -2.252224     -5.247284      0.328417
24
Coordinates from ORCA-job 1 Relaxed Surface Scan Step 23
  C      -3.123646     -0.713012     -1.037125
  H      -0.462615     -3.703529     -0.479970
  C      -3.341339     -0.666220     -2.552417
  H      -4.233690     -0.082691     -2.782583
  H      -2.493632     -0.202935     -3.052469
  H      -3.481368     -1.669219     -2.959917
  C      -2.968554      0.701349     -0.432894
  H      -3.887468      1.239111     -0.673673
  C      -2.814318      0.685179      1.084601
  H      -1.887225      0.191742      1.386414
  H      -2.775099      1.709478      1.455144
  H      -3.648987      0.172646      1.566649
  C      -1.901452     -1.546546     -0.715435
  O      -0.796939     -1.232178     -1.029271
  O      -2.168728     -2.642311     -0.041072
  O      -1.938295      1.419446     -1.034925
  H      -1.150561      0.892505     -1.050913
  C      -1.088722     -3.466789      0.377421
  H      -3.982189     -1.189732     -0.565611
  H      -0.475225     -2.906600      1.082468
  C      -1.668054     -4.708633      1.011266
  H      -0.862822     -5.360206      1.353375
  H      -2.292199     -4.452297      1.867753
  H      -2.277641     -5.260282      0.294970
24
Coordinates from ORCA-job 1 Relaxed Surface Scan Step 24
  C      -3.115179     -0.708801     -1.007564
  H      -0.464579     -3.716347     -0.503612
  C      -3.333568     -0.704762     -2.524074
  H      -4.232198     -0.137265     -2.769288
  H      -2.491035     -0.244977     -3.036250
  H      -3.462782     -1.719737     -2.904578
  C      -2.973576      0.721390     -0.441139
  H      -3.896821      1.244437     -0.697513
  C      -2.822838      0.746586      1.076607
  H      -1.893423      0.267158      1.393237
  H      -2.791418      1.780559      1.420090
  H      -3.655810      0.241914      1.569953
  C      -1.889108     -1.530927     -0.670063
  O      -0.779334     -1.193386     -0.938686
  O      -2.163308     -2.654198     -0.045378
  O      -1.949226      1.432404     -1.060817
  H      -1.153858      0.916909     -1.046526
  C      -1.087488     -3.490449      0.359216
  H      -3.970088     -1.181562     -0.525370
  H      -0.469880     -2.946238      1.072778
  C      -1.673017     -4.740369      0.971205
  H      -0.870995     -5.402726      1.299897
  H      -2.294076     -4.495982      1.833427
  H      -2.287161     -5.275355      0.246236
