26
Coordinates from ORCA-job 5 Relaxed Surface Scan Step 1
  O      36.137664    -22.833756     -2.470068
  C      35.237967    -22.021419     -3.104303
  C      33.472333    -22.027744     -4.656513
  O      34.466009    -22.757498     -3.985557
  C      36.018197    -20.974751     -3.872947
  O      36.766800    -20.153598     -3.029312
  C      35.075627    -20.078230     -4.653590
  O      35.793387    -19.269043     -5.537941
  C      34.076337    -20.887723     -5.481037
  O      34.712862    -21.427863     -6.594269
  H      34.585042    -21.535036     -2.361651
  H      32.815196    -21.565300     -3.906727
  H      36.657523    -21.512477     -4.576881
  H      34.525596    -19.462633     -3.933363
  H      33.264682    -20.220611     -5.792787
  H      35.269345    -20.761705     -6.971254
  H      36.492368    -18.840392     -5.065755
  H      37.381173    -20.686919     -2.546964
  C      35.608843    -23.818728     -1.632731
  H      34.963797    -23.378035     -0.866383
  H      35.036956    -24.553098     -2.198216
  H      36.445489    -24.313017     -1.145198
  C      32.661390    -23.001094     -5.486865
  H      32.220625    -23.757998     -4.838206
  H      31.859698    -22.481440     -6.013289
  H      33.301096    -23.488894     -6.218194
26
Coordinates from ORCA-job 5 Relaxed Surface Scan Step 2
  O      36.110284    -22.802512     -2.366383
  C      35.243055    -22.023681     -3.083177
  C      33.528973    -22.091444     -4.643540
  O      34.610431    -22.763725     -4.062621
  C      36.046729    -20.950719     -3.773189
  O      36.636019    -20.060875     -2.872378
  C      35.221768    -20.114141     -4.750461
  O      36.045942    -19.752827     -5.826774
  C      33.937843    -20.765817     -5.357247
  O      34.111763    -21.032308     -6.710776
  H      34.492095    -21.582738     -2.409157
  H      32.847646    -21.806310     -3.830313
  H      36.800936    -21.485615     -4.354472
  H      34.913500    -19.223343     -4.199848
  H      33.111373    -20.060361     -5.234894
  H      34.812233    -20.493536     -7.047852
  H      36.743861    -19.193948     -5.520463
  H      37.206157    -20.545496     -2.293684
  C      35.542933    -23.818516     -1.593912
  H      34.819752    -23.412442     -0.879983
  H      35.046604    -24.559850     -2.218904
  H      36.349195    -24.296200     -1.042876
  C      32.801762    -23.062086     -5.550664
  H      32.457191    -23.913181     -4.962843
  H      31.941738    -22.583535     -6.018540
  H      33.466215    -23.413792     -6.335049
26
Coordinates from ORCA-job 5 Relaxed Surface Scan Step 3
  O      36.045667    -22.742266     -2.238664
  C      35.224739    -21.979295     -3.025446
  C      33.527984    -22.151863     -4.675909
  O      34.558457    -22.774219     -3.937587
  C      36.093551    -20.981898     -3.772412
  O      36.576327    -19.996066     -2.913880
  C      35.310876    -20.321534     -4.918173
  O      35.753525    -20.737822     -6.182613
  C      33.816780    -20.636305     -4.850719
  O      33.143575    -20.094837     -5.936422
  H      34.503020    -21.445857     -2.389058
  H      32.595272    -22.239113     -4.107490
  H      36.910070    -21.560530     -4.211249
  H      35.429248    -19.241122     -4.819179
  H      33.432233    -20.121592     -3.970233
  H      33.652363    -20.264167     -6.716557
  H      36.616074    -20.397625     -6.360512
  H      37.052602    -20.411905     -2.210299
  C      35.420748    -23.663672     -1.395533
  H      34.706222    -23.167601     -0.731323
  H      34.899799    -24.431501     -1.965901
  H      36.195954    -24.128935     -0.791669
  C      33.374760    -22.928187     -5.969752
  H      33.200984    -23.978341     -5.734025
  H      32.526961    -22.555933     -6.542320
  H      34.278206    -22.856812     -6.573073
26
Coordinates from ORCA-job 5 Relaxed Surface Scan Step 4
  O      36.378720    -22.766683     -2.755020
  C      35.241785    -22.020282     -2.919816
  C      33.534626    -21.725494     -4.537444
  O      34.487868    -22.580818     -3.943900
  C      35.626012    -20.588592     -3.295894
  O      34.613632    -19.736012     -2.804094
  C      35.650542    -20.445295     -4.829326
  O      36.318713    -21.479239     -5.499101
  C      34.207813    -20.456160     -5.299431
  O      34.137396    -20.527321     -6.680699
  H      34.653574    -22.001846     -1.994600
  H      32.908968    -21.314604     -3.743264
  H      36.593858    -20.358471     -2.854122
  H      36.143141    -19.513997     -5.107107
  H      33.673216    -19.565298     -4.993794
  H      34.847453    -21.071852     -6.990522
  H      36.076389    -22.317607     -5.135476
  H      34.980921    -19.059582     -2.260152
  C      36.200376    -24.074439     -2.296211
  H      35.707667    -24.081565     -1.319317
  H      35.609506    -24.667053     -2.993656
  H      37.186969    -24.518956     -2.194312
  C      32.677462    -22.573658     -5.451826
  H      32.197896    -23.366811     -4.876976
  H      31.910458    -21.965797     -5.928978
  H      33.281040    -23.031570     -6.234961
26
Coordinates from ORCA-job 5 Relaxed Surface Scan Step 5
  O      36.351364    -22.775567     -2.910653
  C      35.207514    -22.004392     -2.801646
  C      33.464842    -21.653810     -4.446514
  O      34.217497    -22.500158     -3.612131
  C      35.540025    -20.600694     -3.237470
  O      34.417631    -19.830783     -2.827252
  C      35.672690    -20.575010     -4.793096
  O      35.914106    -21.801680     -5.455513
  C      34.285861    -20.325928     -5.251883
  O      34.153841    -20.365304     -6.621917
  H      34.869566    -21.999151     -1.760338
  H      32.703358    -21.170706     -3.837312
  H      36.447978    -20.267929     -2.735835
  H      36.398034    -19.823446     -5.118840
  H      33.830389    -19.407146     -4.918025
  H      34.648924    -21.100739     -6.952298
  H      36.473009    -22.367516     -4.942468
  H      34.663201    -18.928030     -2.705044
  C      36.246933    -24.092075     -2.450462
  H      35.935647    -24.113211     -1.402420
  H      35.533306    -24.663310     -3.043186
  H      37.231958    -24.545273     -2.532566
  C      32.788319    -22.551343     -5.459377
  H      32.205743    -23.314610     -4.940365
  H      32.120507    -21.975260     -6.097904
  H      33.523756    -23.055927     -6.085487
26
Coordinates from ORCA-job 5 Relaxed Surface Scan Step 6
  O      36.354824    -22.729586     -2.916565
  C      35.208399    -21.967876     -2.787301
  C      33.462253    -21.662142     -4.415210
  O      34.185924    -22.481947     -3.540771
  C      35.494519    -20.580153     -3.291894
  O      34.323992    -19.795777     -2.993308
  C      35.699387    -20.645347     -4.850511
  O      35.723912    -21.903690     -5.519245
  C      34.392508    -20.208360     -5.332802
  O      34.215634    -20.261855     -6.683404
  H      34.910897    -21.945744     -1.731156
  H      32.693053    -21.140862     -3.853823
  H      36.371298    -20.160018     -2.801439
  H      36.560389    -20.045903     -5.160476
  H      33.991064    -19.280039     -4.971896
  H      34.627172    -21.047205     -7.013440
  H      36.352874    -22.487817     -5.121214
  H      34.439324    -19.407115     -2.140523
  C      36.282268    -24.032842     -2.416872
  H      36.018368    -24.029527     -1.355330
  H      35.547350    -24.625539     -2.961019
  H      37.266094    -24.482013     -2.530630
  C      32.810884    -22.551628     -5.446262
  H      32.174139    -23.290644     -4.952234
  H      32.188901    -21.957071     -6.114896
  H      33.550572    -23.088300     -6.037779
26
Coordinates from ORCA-job 5 Relaxed Surface Scan Step 7
  O      36.357096    -22.713586     -2.893814
  C      35.183365    -21.996007     -2.777190
  C      33.421285    -21.757692     -4.356013
  O      34.191353    -22.566005     -3.534584
  C      35.430329    -20.606906     -3.302506
  O      34.249490    -19.822826     -3.022189
  C      35.697871    -20.685771     -4.855225
  O      35.613958    -21.914385     -5.579806
  C      34.499993    -20.065417     -5.384609
  O      34.327132    -20.091601     -6.717772
  H      34.875639    -21.967511     -1.724127
  H      32.681734    -21.217826     -3.775866
  H      36.293396    -20.168014     -2.803723
  H      36.651990    -20.202782     -5.103459
  H      34.121022    -19.151554     -4.972247
  H      34.687227    -20.900964     -7.053462
  H      36.255893    -22.533640     -5.263361
  H      34.405780    -19.348614     -2.220217
  C      36.334161    -24.012995     -2.380965
  H      36.073755    -24.009478     -1.318450
  H      35.620183    -24.638439     -2.916380
  H      37.333545    -24.426762     -2.493873
  C      32.767774    -22.592714     -5.421051
  H      32.110560    -23.345518     -4.970650
  H      32.159687    -21.957899     -6.066617
  H      33.501782    -23.114095     -6.031845
26
Coordinates from ORCA-job 5 Relaxed Surface Scan Step 8
  O      36.344737    -22.702854     -2.881261
  C      35.148498    -22.020967     -2.795216
  C      33.337127    -21.882242     -4.300804
  O      34.192454    -22.655082     -3.548339
  C      35.378661    -20.628327     -3.335166
  O      34.228225    -19.817198     -3.060693
  C      35.688584    -20.689533     -4.869986
  O      35.541362    -21.877766     -5.640368
  C      34.659114    -19.864692     -5.469684
  O      34.566027    -19.843242     -6.789249
  H      34.825070    -21.973048     -1.746496
  H      32.648543    -21.316210     -3.682875
  H      36.246723    -20.207099     -2.827061
  H      36.716092    -20.325492     -5.044621
  H      34.289291    -18.972620     -5.004845
  H      34.877550    -20.675081     -7.125514
  H      36.188051    -22.518296     -5.379592
  H      34.396661    -19.343819     -2.260430
  C      36.355286    -23.995507     -2.352322
  H      36.072817    -23.988103     -1.295344
  H      35.674607    -24.652109     -2.893447
  H      37.370552    -24.375646     -2.439508
  C      32.661383    -22.709895     -5.348844
  H      32.104434    -23.541829     -4.895195
  H      31.953536    -22.095980     -5.907001
  H      33.380615    -23.136362     -6.046140
26
Coordinates from ORCA-job 5 Relaxed Surface Scan Step 9
  O      36.334376    -22.677923     -2.885945
  C      35.102314    -22.044114     -2.849545
  C      33.236027    -21.980972     -4.283491
  O      34.212817    -22.739758     -3.606317
  C      35.338776    -20.639401     -3.380468
  O      34.243448    -19.772799     -3.128731
  C      35.715376    -20.660290     -4.891291
  O      35.513220    -21.766805     -5.735144
  C      34.920096    -19.620710     -5.538446
  O      34.817385    -19.615410     -6.818031
  H      34.755059    -21.976039     -1.806352
  H      32.545743    -21.530291     -3.566238
  H      36.212325    -20.259333     -2.846184
  H      36.787388    -20.398980     -4.973033
  H      34.606054    -18.720083     -5.043104
  H      35.038965    -20.485726     -7.148266
  H      35.870081    -22.552994     -5.347309
  H      34.377806    -19.373089     -2.282784
  C      36.381050    -23.959639     -2.333656
  H      36.073744    -23.944046     -1.283621
  H      35.737196    -24.651072     -2.875965
  H      37.411890    -24.302709     -2.390404
  C      32.544606    -22.861700     -5.280620
  H      32.125174    -23.773918     -4.825238
  H      31.721095    -22.316150     -5.746501
  H      33.223989    -23.185048     -6.073316
26
Coordinates from ORCA-job 5 Relaxed Surface Scan Step 10
  O      36.214456    -22.572302     -2.877054
  C      35.110908    -21.831180     -3.188440
  C      32.961132    -22.402869     -4.086804
  O      34.360492    -22.439244     -4.182635
  C      35.581739    -20.435071     -3.588420
  O      34.462004    -19.594429     -3.717005
  C      36.398832    -20.375814     -4.916508
  O      36.514533    -21.561509     -5.603019
  C      35.835147    -19.275849     -5.807850
  O      35.317085    -19.490552     -6.846884
  H      34.472381    -21.719773     -2.297249
  H      32.652097    -22.760747     -3.098141
  H      36.219727    -20.081286     -2.776171
  H      37.416672    -20.074628     -4.662995
  H      35.957929    -18.247720     -5.431360
  H      32.599040    -21.351343     -4.204179
  H      35.656736    -21.893543     -5.820801
  H      34.162838    -19.299228     -2.872088
  C      36.000312    -23.883492     -2.457394
  H      35.292977    -23.921682     -1.621555
  H      35.623208    -24.505543     -3.268055
  H      36.957144    -24.275467     -2.122247
  C      32.381136    -23.287406     -5.168047
  H      32.735610    -24.313225     -5.059718
  H      31.291851    -23.288455     -5.109405
  H      32.670014    -22.926642     -6.155976
26
Coordinates from ORCA-job 5 Relaxed Surface Scan Step 11
  O      36.200779    -22.521720     -2.876398
  C      35.081326    -21.807284     -3.196756
  C      32.937966    -22.545285     -3.977841
  O      34.322938    -22.438824     -4.170508
  C      35.525160    -20.419930     -3.653560
  O      34.386256    -19.634716     -3.892390
  C      36.415578    -20.414064     -4.928924
  O      36.430722    -21.575418     -5.663664
  C      36.037956    -19.215688     -5.791882
  O      35.632529    -19.312750     -6.895671
  H      34.453931    -21.678936     -2.300271
  H      32.734027    -23.090702     -3.049700
  H      36.107723    -19.987182     -2.836893
  H      37.445263    -20.251783     -4.605294
  H      36.191168    -18.228886     -5.323137
  H      32.494671    -21.552394     -3.885722
  H      35.553020    -21.809872     -5.923946
  H      34.032006    -19.300079     -3.084339
  C      36.015288    -23.829206     -2.433176
  H      35.342757    -23.863431     -1.568795
  H      35.612440    -24.463878     -3.221580
  H      36.988024    -24.209697     -2.132562
  C      32.340291    -23.276635     -5.158067
  H      32.780846    -24.269060     -5.259249
  H      31.262393    -23.386465     -5.028423
  H      32.520944    -22.725116     -6.081254
26
Coordinates from ORCA-job 5 Relaxed Surface Scan Step 12
  O      36.195303    -22.494090     -2.914890
  C      35.053714    -21.806676     -3.220392
  C      32.905496    -22.580127     -3.946470
  O      34.286048    -22.474346     -4.158558
  C      35.470292    -20.424130     -3.716952
  O      34.324153    -19.682780     -4.037754
  C      36.413508    -20.442129     -4.941951
  O      36.295062    -21.522293     -5.783011
  C      36.251195    -19.128055     -5.694352
  O      35.947916    -19.059973     -6.832292
  H      34.447332    -21.670657     -2.309972
  H      32.712707    -23.080889     -2.990678
  H      36.010551    -19.935948     -2.900845
  H      37.435585    -20.468333     -4.559734
  H      36.456750    -18.218865     -5.101839
  H      32.453174    -21.587865     -3.898314
  H      35.414660    -21.581538     -6.120949
  H      33.915264    -19.339079     -3.259850
  C      36.046007    -23.795228     -2.439134
  H      35.399845    -23.821944     -1.554753
  H      35.631412    -24.452441     -3.202318
  H      37.033754    -24.152356     -2.159371
  C      32.301458    -23.372912     -5.083194
  H      32.749417    -24.365432     -5.140204
  H      31.225627    -23.484123     -4.937969
  H      32.469768    -22.866790     -6.034252
26
Coordinates from ORCA-job 5 Relaxed Surface Scan Step 13
  O      36.226725    -22.539111     -2.954227
  C      35.042567    -21.902613     -3.215983
  C      32.926142    -22.417298     -4.247604
  O      34.287004    -22.682663     -4.057062
  C      35.409696    -20.509796     -3.737758
  O      34.269149    -19.726646     -3.937013
  C      36.233139    -20.487936     -5.028765
  O      35.703697    -21.227192     -6.062339
  C      36.401663    -19.039855     -5.457768
  O      36.049533    -18.645791     -6.514996
  H      34.483154    -21.752101     -2.273293
  H      32.449499    -22.199277     -3.283263
  H      36.034548    -20.065033     -2.954876
  H      37.222523    -20.880862     -4.780950
  H      36.879984    -18.368024     -4.726068
  H      32.796003    -21.542313     -4.881858
  H      35.287276    -20.637503     -6.676300
  H      33.862841    -19.504783     -3.114347
  C      36.152228    -23.806255     -2.374610
  H      35.564715    -23.782277     -1.450885
  H      35.710188    -24.530442     -3.056179
  H      37.168243    -24.109823     -2.134423
  C      32.290422    -23.633484     -4.882985
  H      32.382377    -24.504236     -4.232245
  H      31.231117    -23.452723     -5.074947
  H      32.781567    -23.860966     -5.829258
26
Coordinates from ORCA-job 5 Relaxed Surface Scan Step 14
  O      36.221042    -22.472656     -2.819664
  C      35.024459    -21.885955     -3.147398
  C      32.978833    -22.467662     -4.248850
  O      34.328113    -22.733517     -3.972412
  C      35.377632    -20.516298     -3.738444
  O      34.277893    -19.658448     -3.787402
  C      35.988007    -20.567767     -5.137833
  O      35.110179    -21.011462     -6.103798
  C      36.497653    -19.185376     -5.498540
  O      36.198440    -18.641943     -6.505302
  H      34.431263    -21.705380     -2.232039
  H      32.429135    -22.346020     -3.306771
  H      36.144296    -20.114538     -3.067353
  H      36.861280    -21.226801     -5.084512
  H      37.181337    -18.713521     -4.774213
  H      32.885597    -21.543495     -4.813058
  H      34.981361    -20.314632     -6.734009
  H      33.994079    -19.428538     -2.917102
  C      36.165693    -23.723471     -2.202665
  H      35.526679    -23.695501     -1.314177
  H      35.791656    -24.487691     -2.881255
  H      37.178224    -23.975432     -1.896494
  C      32.422495    -23.630041     -5.038408
  H      32.509225    -24.559859     -4.474206
  H      31.369368    -23.461542     -5.271057
  H      32.972059    -23.741455     -5.973040
26
Coordinates from ORCA-job 5 Relaxed Surface Scan Step 15
  O      36.198136    -22.387368     -2.756035
  C      34.996273    -21.841440     -3.136569
  C      32.982419    -22.566781     -4.193178
  O      34.357946    -22.725566     -3.972645
  C      35.340434    -20.489058     -3.771126
  O      34.253328    -19.613495     -3.810149
  C      35.871960    -20.617891     -5.204446
  O      34.873643    -20.815501     -6.135009
  C      36.674272    -19.377399     -5.540662
  O      36.379810    -18.635805     -6.412755
  H      34.366209    -21.655310     -2.249477
  H      32.449258    -22.649669     -3.237802
  H      36.137379    -20.081195     -3.141934
  H      36.557682    -21.467133     -5.229130
  H      37.561106    -19.194648     -4.909823
  H      32.777709    -21.581980     -4.607499
  H      34.606608    -19.973060     -6.476168
  H      34.058475    -19.285943     -2.946949
  C      36.155526    -23.622262     -2.107009
  H      35.496367    -23.584634     -1.233729
  H      35.813299    -24.412682     -2.772462
  H      37.165848    -23.844257     -1.771770
  C      32.528229    -23.644837     -5.149495
  H      32.733907    -24.635831     -4.742073
  H      31.455621    -23.561055     -5.333779
  H      33.054554    -23.544201     -6.098328
26
Coordinates from ORCA-job 5 Relaxed Surface Scan Step 16
  O      36.183165    -22.303153     -2.766576
  C      34.966303    -21.800087     -3.158281
  C      32.980854    -22.637419     -4.180344
  O      34.368305    -22.707325     -4.002389
  C      35.274537    -20.447613     -3.809470
  O      34.168736    -19.592523     -3.846199
  C      35.784397    -20.602397     -5.258821
  O      34.770112    -20.532020     -6.190188
  C      36.850644    -19.559545     -5.515018
  O      36.720402    -18.656643     -6.266122
  H      34.320687    -21.632369     -2.280390
  H      32.481235    -22.776551     -3.213908
  H      36.065657    -20.013983     -3.192086
  H      36.257672    -21.579133     -5.349221
  H      37.776720    -19.682590     -4.924681
  H      32.698140    -21.658083     -4.564064
  H      34.439537    -19.645613     -6.216174
  H      34.028704    -19.196128     -3.001522
  C      36.176940    -23.531761     -2.104250
  H      35.516214    -23.504385     -1.231836
  H      35.859269    -24.339236     -2.761600
  H      37.193041    -23.720168     -1.766160
  C      32.568777    -23.719865     -5.150987
  H      32.853001    -24.704098     -4.775851
  H      31.487790    -23.703900     -5.300343
  H      33.055161    -23.562409     -6.113518
26
Coordinates from ORCA-job 5 Relaxed Surface Scan Step 17
  O      36.183364    -22.226411     -2.887157
  C      34.932695    -21.767491     -3.219975
  C      32.938697    -22.670273     -4.180159
  O      34.334288    -22.682670     -4.056869
  C      35.160694    -20.395935     -3.858123
  O      33.989011    -19.638639     -3.938173
  C      35.761880    -20.518667     -5.288445
  O      34.874512    -20.169897     -6.282021
  C      37.037261    -19.706994     -5.351137
  O      37.166915    -18.727111     -5.999108
  H      34.315542    -21.641257     -2.315355
  H      32.482110    -22.722758     -3.184649
  H      35.878714    -19.896519     -3.201912
  H      36.037319    -21.558412     -5.452246
  H      37.855183    -20.084162     -4.710884
  H      32.610028    -21.741850     -4.646362
  H      34.602288    -19.272473     -6.161791
  H      33.797298    -19.245472     -3.102021
  C      36.255977    -23.459907     -2.237374
  H      35.640554    -23.463407     -1.332160
  H      35.934378    -24.272946     -2.885962
  H      37.294181    -23.613953     -1.953801
  C      32.520340    -23.859140     -5.014620
  H      32.837647    -24.791707     -4.545927
  H      31.435084    -23.878696     -5.127721
  H      32.970042    -23.802251     -6.006050
26
Coordinates from ORCA-job 5 Relaxed Surface Scan Step 18
  O      36.180774    -22.155995     -3.019991
  C      34.900107    -21.733364     -3.279741
  C      32.878329    -22.735409     -4.099063
  O      34.279649    -22.651707     -4.099371
  C      35.036756    -20.349088     -3.913481
  O      33.799299    -19.730426     -4.060413
  C      35.742313    -20.437738     -5.305070
  O      35.042742    -19.837110     -6.325423
  C      37.131120    -19.849366     -5.173745
  O      37.456642    -18.848194     -5.715459
  H      34.329984    -21.642615     -2.340859
  H      32.517171    -22.817500     -3.067058
  H      35.658363    -19.768260     -3.223612
  H      35.848784    -21.489546     -5.562023
  H      37.817454    -20.394652     -4.506728
  H      32.447383    -21.833340     -4.530678
  H      35.215083    -18.906704     -6.323919
  H      33.516990    -19.379799     -3.231068
  C      36.327603    -23.386206     -2.376178
  H      35.772858    -23.403514     -1.432866
  H      35.984962    -24.207504     -3.003398
  H      37.385598    -23.513693     -2.161080
  C      32.471809    -23.954468     -4.895339
  H      32.889833    -24.861252     -4.456143
  H      31.384610    -24.047429     -4.915328
  H      32.829785    -23.874121     -5.921967
26
Coordinates from ORCA-job 5 Relaxed Surface Scan Step 19
  O      36.185903    -22.136830     -3.037191
  C      34.884734    -21.735046     -3.236646
  C      32.889298    -22.907440     -3.866260
  O      34.249391    -22.624448     -4.080875
  C      34.946708    -20.335616     -3.836378
  O      33.650678    -19.870766     -3.967312
  C      35.680889    -20.338556     -5.207498
  O      35.036497    -19.484336     -6.094289
  C      37.122653    -19.913376     -5.040077
  O      37.570812    -18.988711     -5.631905
  H      34.347415    -21.685743     -2.280848
  H      32.760638    -23.345959     -2.869977
  H      35.494808    -19.703258     -3.128058
  H      35.672670    -21.353260     -5.607884
  H      37.725134    -20.506161     -4.340414
  H      32.304355    -21.990230     -3.903270
  H      35.664219    -18.845750     -6.411604
  H      33.593887    -19.357157     -4.762294
  C      36.374922    -23.367321     -2.406592
  H      35.879845    -23.387817     -1.430922
  H      35.995540    -24.187883     -3.014416
  H      37.444173    -23.496263     -2.257442
  C      32.430469    -23.878509     -4.929851
  H      33.012627    -24.800124     -4.890131
  H      31.377534    -24.127063     -4.786230
  H      32.550201    -23.441377     -5.921633
26
Coordinates from ORCA-job 5 Relaxed Surface Scan Step 20
  O      36.177023    -22.094342     -3.017880
  C      34.877082    -21.709532     -3.252869
  C      32.921907    -22.947630     -3.873542
  O      34.269339    -22.617794     -4.097392
  C      34.919462    -20.312375     -3.861203
  O      33.606781    -19.883255     -3.975129
  C      35.611518    -20.277774     -5.245075
  O      35.086665    -19.224223     -5.986390
  C      37.112203    -20.115831     -5.123711
  O      37.673293    -19.197593     -5.623546
  H      34.319496    -21.654171     -2.309522
  H      32.814173    -23.387615     -2.875510
  H      35.468150    -19.665550     -3.166259
  H      35.413818    -21.222096     -5.756366
  H      37.646612    -20.885700     -4.557144
  H      32.305768    -22.050635     -3.909897
  H      35.799674    -18.655040     -6.250719
  H      33.565754    -19.223277     -4.653869
  C      36.360578    -23.308392     -2.354559
  H      35.842885    -23.309999     -1.390566
  H      36.001909    -24.145992     -2.951852
  H      37.426934    -23.425268     -2.177509
  C      32.489218    -23.936829     -4.931385
  H      33.106186    -24.835718     -4.896267
  H      31.447980    -24.224745     -4.776642
  H      32.581591    -23.497625     -5.925197
26
Coordinates from ORCA-job 5 Relaxed Surface Scan Step 21
  O      36.168985    -22.047093     -2.984122
  C      34.870625    -21.685179     -3.257414
  C      32.955388    -22.964351     -3.912914
  O      34.300269    -22.610113     -4.111644
  C      34.900931    -20.287666     -3.863961
  O      33.582902    -19.856264     -3.936255
  C      35.531387    -20.215057     -5.268527
  O      35.161189    -19.003020     -5.843828
  C      37.041409    -20.334511     -5.257192
  O      37.727144    -19.441288     -5.631581
  H      34.287784    -21.633299     -2.329617
  H      32.829376    -23.370235     -2.902862
  H      35.476471    -19.646452     -3.186822
  H      35.135454    -21.040862     -5.863306
  H      37.463360    -21.278637     -4.900087
  H      32.319828    -22.083747     -3.997449
  H      35.947322    -18.504160     -6.030983
  H      33.547341    -19.101888     -4.507932
  C      36.351359    -23.243654     -2.289637
  H      35.812006    -23.229714     -1.337719
  H      36.015892    -24.098998     -2.875504
  H      37.414687    -23.343629     -2.086297
  C      32.574512    -24.001071     -4.944928
  H      33.210717    -24.883056     -4.860180
  H      31.536307    -24.307864     -4.807195
  H      32.683354    -23.597189     -5.952043
26
Coordinates from ORCA-job 5 Relaxed Surface Scan Step 22
  O      36.154177    -21.974788     -2.942355
  C      34.854065    -21.650969     -3.251194
  C      32.999547    -22.994830     -3.938407
  O      34.332813    -22.592916     -4.120058
  C      34.869199    -20.255448     -3.858095
  O      33.550616    -19.812548     -3.901204
  C      35.460413    -20.162321     -5.272739
  O      35.287068    -18.852413     -5.710530
  C      36.919650    -20.554118     -5.371996
  O      37.748695    -19.754338     -5.655838
  H      34.244722    -21.612801     -2.340291
  H      32.876061    -23.410697     -2.932318
  H      35.468354    -19.620294     -3.197866
  H      34.896326    -20.841171     -5.915879
  H      37.166263    -21.604924     -5.193052
  H      32.334718    -22.135231     -4.024333
  H      36.142401    -18.463627     -5.847475
  H      33.524993    -18.997866     -4.383055
  C      36.354159    -23.161821     -2.236941
  H      35.794495    -23.157314     -1.296669
  H      36.054766    -24.029863     -2.824076
  H      37.415228    -23.231303     -2.010942
  C      32.663932    -24.036937     -4.980605
  H      33.328157    -24.897785     -4.893830
  H      31.635130    -24.378796     -4.855937
  H      32.770052    -23.623882     -5.984315
26
Coordinates from ORCA-job 5 Relaxed Surface Scan Step 23
  O      36.124594    -21.902756     -2.921868
  C      34.823033    -21.610568     -3.257156
  C      33.041510    -23.049563     -3.929456
  O      34.339732    -22.559495     -4.140729
  C      34.827180    -20.216248     -3.860990
  O      33.504032    -19.780358     -3.922956
  C      35.441491    -20.098655     -5.261358
  O      35.475677    -18.744555     -5.580060
  C      36.813089    -20.714697     -5.436051
  O      37.756652    -20.044080     -5.694762
  H      34.194515    -21.587999     -2.359277
  H      32.979181    -23.509863     -2.937322
  H      35.413921    -19.580932     -3.192312
  H      34.775835    -20.623937     -5.951409
  H      36.880569    -21.803650     -5.352437
  H      32.323901    -22.228479     -3.959138
  H      36.378742    -18.491779     -5.727951
  H      33.486625    -18.922809     -4.322954
  C      36.343497    -23.089558     -2.222470
  H      35.765707    -23.108859     -1.293326
  H      36.080248    -23.961097     -2.822071
  H      37.401437    -23.131902     -1.976473
  C      32.728812    -24.068804     -5.000847
  H      33.444202    -24.891666     -4.971242
  H      31.726601    -24.475301     -4.855686
  H      32.775220    -23.611389     -5.989698
26
Coordinates from ORCA-job 5 Relaxed Surface Scan Step 24
  O      36.086057    -21.848621     -2.932069
  C      34.783909    -21.574284     -3.282760
  C      33.074105    -23.115890     -3.897063
  O      34.315487    -22.523183     -4.173697
  C      34.781234    -20.179840     -3.881505
  O      33.450271    -19.776005     -4.004273
  C      35.474480    -20.021215     -5.241498
  O      35.699986    -18.661559     -5.426346
  C      36.752067    -20.802575     -5.463804