29
Coordinates from ORCA-job 1 Relaxed Surface Scan Step 1
  C      -3.287677     -1.474552      0.237331
  C      -2.484219     -0.184033      0.059277
  C      -2.715645      0.756204      1.238450
  C      -4.203124      0.970741      1.468052
  C      -4.931402     -0.367270      1.544747
  H      -2.895112     -1.988770      1.119960
  H      -2.257734      1.721985      1.010247
  H      -4.337191      1.485843      2.423429
  H      -4.633605     -0.895126      2.457702
  H      -2.818521      0.320922     -0.848833
  O      -4.639128     -1.155752      0.434796
  O      -1.106533     -0.447335      0.019011
  H      -0.835910     -0.713210     -0.844027
  O      -2.179211      0.217224      2.408428
  H      -1.279045     -0.023765      2.245285
  O      -4.688058      1.732205      0.410724
  H      -5.629672      1.641106      0.382597
  O      -6.275226     -0.094855      1.553431
  C      -7.174975     -1.055257      2.044891
  H      -8.095965     -0.507734      2.239429
  H      -6.809663     -1.439397      3.002519
  C      -7.460037     -2.194531      1.083040
  H      -8.262401     -2.815972      1.487311
  H      -7.778925     -1.802823      0.116635
  H      -6.584230     -2.818671      0.920713
  C      -3.208525     -2.404441     -0.957387
  H      -2.179410     -2.716474     -1.140262
  H      -3.804130     -3.298847     -0.775893
  H      -3.598109     -1.913194     -1.850816
29
Coordinates from ORCA-job 1 Relaxed Surface Scan Step 2
  C      -3.300520     -1.468934      0.213785
  C      -2.481278     -0.184769      0.063283
  C      -2.715967      0.742067      1.252266
  C      -4.203604      0.968462      1.469102
  C      -4.945325     -0.363191      1.521278
  H      -2.921847     -2.002067      1.091396
  H      -2.245892      1.706112      1.041995
  H      -4.342289      1.472666      2.429673
  H      -4.661100     -0.905549      2.430094
  H      -2.799555      0.336100     -0.841628
  O      -4.650227     -1.139203      0.403532
  O      -1.106181     -0.462675      0.034800
  H      -0.828489     -0.719251     -0.828812
  O      -2.197821      0.182169      2.420726
  H      -1.298968     -0.067499      2.263395
  O      -4.670655      1.747982      0.416957
  H      -5.612835      1.666772      0.378478
  O      -6.287226     -0.079602      1.519720
  C      -7.193531     -1.022319      2.031669
  H      -8.132002     -0.482039      2.145345
  H      -6.868862     -1.333332      3.029900
  C      -7.414333     -2.231458      1.140550
  H      -8.224364     -2.838445      1.551307
  H      -7.692406     -1.915317      0.134800
  H      -6.522630     -2.849924      1.063496
  C      -3.219982     -2.380423     -0.995130
  H      -2.192779     -2.701829     -1.172617
  H      -3.828281     -3.270199     -0.834264
  H      -3.594436     -1.870084     -1.884306
29
Coordinates from ORCA-job 1 Relaxed Surface Scan Step 3
  C      -3.313608     -1.463484      0.190221
  C      -2.479328     -0.186048      0.067024
  C      -2.717242      0.727057      1.265984
  C      -4.204760      0.965656      1.470707
  C      -4.959449     -0.359285      1.497809
  H      -2.949248     -2.014774      1.062777
  H      -2.235114      1.688917      1.073734
  H      -4.348123      1.458643      2.436449
  H      -4.688511     -0.915969      2.402002
  H      -2.782213      0.350600     -0.833945
  O      -4.661358     -1.122174      0.372078
  O      -1.106954     -0.478021      0.049471
  H      -0.822561     -0.725600     -0.814586
  O      -2.217183      0.146108      2.432087
  H      -1.319602     -0.111537      2.280422
  O      -4.653746      1.763385      0.424435
  H      -5.596219      1.691778      0.375082
  O      -6.299416     -0.065392      1.485440
  C      -7.211458     -0.991769      2.015600
  H      -8.165014     -0.467482      2.048291
  H      -6.929911     -1.228758      3.046858
  C      -7.366474     -2.263207      1.200340
  H      -8.182643     -2.858694      1.615636
  H      -7.602028     -2.023356      0.163348
  H      -6.461288     -2.867322      1.207404
  C      -3.231302     -2.357008     -1.031961
  H      -2.206142     -2.687712     -1.204223
  H      -3.851718     -3.241758     -0.890955
  H      -3.590770     -1.828575     -1.916739
29
Coordinates from ORCA-job 1 Relaxed Surface Scan Step 4
  C      -3.327736     -1.458387      0.166135
  C      -2.478052     -0.188602      0.071379
  C      -2.719339      0.710643      1.280165
  C      -4.206406      0.962793      1.472375
  C      -4.974018     -0.354698      1.474757
  H      -2.977839     -2.029469      1.031893
  H      -2.224497      1.669560      1.106324
  H      -4.354547      1.445021      2.442868
  H      -4.716428     -0.925002      2.374273
  H      -2.764789      0.364087     -0.825171
  O      -4.672983     -1.104885      0.341471
  O      -1.108824     -0.495446      0.064911
  H      -0.817524     -0.734301     -0.799304
  O      -2.238556      0.108343      2.443578
  H      -1.342498     -0.157903      2.297859
  O      -4.636414      1.778313      0.431964
  H      -5.578946      1.716599      0.371267
  O      -6.312026     -0.050896      1.450614
  C      -7.229443     -0.962632      1.995617
  H      -8.196609     -0.465894      1.942717
  H      -6.997508     -1.121921      3.053922
  C      -7.313127     -2.291203      1.264875
  H      -8.133204     -2.878718      1.683700
  H      -7.503338     -2.131155      0.203705
  H      -6.395838     -2.870188      1.357352
  C      -3.244591     -2.332009     -1.070367
  H      -2.221897     -2.672273     -1.238804
  H      -3.877102     -3.211221     -0.949997
  H      -3.589308     -1.784339     -1.949290
29
Coordinates from ORCA-job 1 Relaxed Surface Scan Step 5
  C      -3.344358     -1.453746      0.142130
  C      -2.478050     -0.193195      0.076636
  C      -2.721714      0.692667      1.294897
  C      -4.207722      0.961086      1.474749
  C      -4.988766     -0.347789      1.454554
  H      -3.008841     -2.047256      0.998435
  H      -2.212782      1.647332      1.139306
  H      -4.359925      1.433910      2.449296
  H      -4.743839     -0.930064      2.349672
  H      -2.747646      0.375873     -0.814971
  O      -4.686027     -1.086422      0.313986
  O      -1.112617     -0.516762      0.081006
  H      -0.814714     -0.747824     -0.783079
  O      -2.261388      0.068803      2.455254
  H      -1.367499     -0.207661      2.315324
  O      -4.617671      1.793275      0.439565
  H      -5.560074      1.742215      0.367580
  O      -6.324691     -0.034041      1.418239
  C      -7.248119     -0.935636      1.969221
  H      -8.226958     -0.483033      1.821538
  H      -7.079065     -1.013443      3.048410
  C      -7.249723     -2.315429      1.333757
  H      -8.071080     -2.899599      1.754647
  H      -7.388731     -2.240533      0.255651
  H      -6.321890     -2.855720      1.515662
  C      -3.263242     -2.304588     -1.110363
  H      -2.243876     -2.655165     -1.278013
  H      -3.908199     -3.177389     -1.011273
  H      -3.594173     -1.735647     -1.981027
29
Coordinates from ORCA-job 1 Relaxed Surface Scan Step 6
  C      -3.364048     -1.450108      0.117884
  C      -2.478698     -0.201267      0.084258
  C      -2.724468      0.672624      1.310819
  C      -4.208537      0.961888      1.476480
  C      -5.003588     -0.337197      1.438255
  H      -3.042115     -2.072445      0.958741
  H      -2.198697      1.620943      1.173238
  H      -4.364573      1.429203      2.453121
  H      -4.770455     -0.927989      2.330318
  H      -2.728121      0.384589     -0.802323
  O      -4.700643     -1.067781      0.292126
  O      -1.118221     -0.544815      0.101138
  H      -0.812891     -0.768976     -0.762173
  O      -2.288185      0.027383      2.468762
  H      -1.397458     -0.262395      2.335714
  O      -4.596113      1.807518      0.443742
  H      -5.538039      1.767754      0.359133
  O      -6.337503     -0.014229      1.388041
  C      -7.266640     -0.911627      1.934601
  H      -8.253464     -0.527940      1.682223
  H      -7.177465     -0.903666      3.026069
  C      -7.173677     -2.335938      1.410919
  H      -7.996763     -2.918542      1.830495
  H      -7.250063     -2.352380      0.324451
  H      -6.240913     -2.824225      1.689900
  C      -3.290057     -2.271064     -1.155100
  H      -2.274944     -2.631555     -1.327980
  H      -3.947176     -3.137120     -1.079468
  H      -3.609871     -1.676423     -2.012596
29
Coordinates from ORCA-job 1 Relaxed Surface Scan Step 7
  C      -3.385056     -1.447831      0.090316
  C      -2.478613     -0.213178      0.094468
  C      -2.727281      0.648551      1.329082
  C      -4.208460      0.963252      1.477650
  C      -5.017985     -0.325070      1.425843
  H      -3.074850     -2.108529      0.905639
  H      -2.181537      1.588245      1.211134
  H      -4.368545      1.429349      2.454259
  H      -4.797623     -0.920000      2.317005
  H      -2.703467      0.390990     -0.786341
  O      -4.715274     -1.051739      0.276095
  O      -1.124523     -0.580352      0.126344
  H      -0.809942     -0.797136     -0.735525
  O      -2.320047     -0.019369      2.484748
  H      -1.433789     -0.326044      2.359888
  O      -4.570439      1.818548      0.443883
  H      -5.511351      1.790276      0.344328
  O      -6.350041      0.006735      1.355632
  C      -7.287676     -0.889896      1.885555
  H      -8.271590     -0.609143      1.513834
  H      -7.306706     -0.785468      2.975551
  C      -7.086348     -2.351346      1.508594
  H      -7.914943     -2.930694      1.921699
  H      -7.078304     -2.474270      0.426752
  H      -6.161008     -2.769350      1.902871
  C      -3.324217     -2.225704     -1.210648
  H      -2.314053     -2.593095     -1.398261
  H      -3.991931     -3.085649     -1.163199
  H      -3.637789     -1.597863     -2.046405
29
Coordinates from ORCA-job 1 Relaxed Surface Scan Step 8
  C      -3.470252     -1.388005      0.043653
  C      -2.543135     -0.169641      0.015826
  C      -2.658281      0.620173      1.318961
  C      -4.114740      0.909897      1.655375
  C      -4.939274     -0.365345      1.533923
  H      -3.154798     -2.031342      0.877687
  H      -2.136381      1.572652      1.197223
  H      -4.166663      1.257724      2.690374
  H      -4.593750     -1.079787      2.289018
  H      -2.847809      0.481290     -0.806266
  O      -4.779703     -0.936975      0.279043
  O      -1.198500     -0.549984     -0.105999
  H      -0.971493     -0.715474     -1.005952
  O      -2.117617     -0.109396      2.378203
  H      -1.249022     -0.395200      2.135782
  O      -4.573797      1.878453      0.770104
  H      -5.519153      1.890803      0.808258
  O      -6.251440     -0.032334      1.756466
  C      -7.283685     -0.945776      1.444079
  H      -7.461722     -0.847266      0.372246
  H      -8.161313     -0.551562      1.954373
  C      -7.047231     -2.378146      1.876920
  H      -7.945559     -2.963616      1.672290
  H      -6.218076     -2.836851      1.341802
  H      -6.848921     -2.432096      2.949019
  C      -3.471054     -2.183746     -1.245605
  H      -2.479544     -2.587981     -1.452613
  H      -4.166761     -3.019289     -1.170513
  H      -3.783711     -1.556962     -2.082890
29
Coordinates from ORCA-job 1 Relaxed Surface Scan Step 9
  C      -3.438388     -1.376232     -0.028316
  C      -2.522948     -0.149740      0.012042
  C      -2.656663      0.576063      1.349128
  C      -4.117629      0.860066      1.666521
  C      -4.945153     -0.408584      1.499720
  H      -3.102797     -2.068704      0.752368
  H      -2.126315      1.529354      1.282675
  H      -4.190197      1.183336      2.708506
  H      -4.643465     -1.133130      2.262655
  H      -2.821595      0.539091     -0.780533
  O      -4.753376     -0.967222      0.241683
  O      -1.174877     -0.517797     -0.112942
  H      -0.935900     -0.634200     -1.017450
  O      -2.141848     -0.206404      2.383174
  H      -1.268566     -0.482985      2.146864
  O      -4.555668      1.851118      0.795903
  H      -5.502024      1.848139      0.795816
  O      -6.264309     -0.057195      1.645578
  C      -7.263657     -1.008048      1.358413
  H      -7.277534     -1.186020      0.283153
  H      -8.197575     -0.515756      1.624350
  C      -7.132186     -2.308617      2.127801
  H      -8.008749     -2.930350      1.936219
  H      -6.252167     -2.875768      1.824562
  H      -7.075115     -2.122665      3.201848
  C      -3.441247     -2.088321     -1.366064
  H      -2.447135     -2.466539     -1.607376
  H      -4.126679     -2.935152     -1.336728
  H      -3.769624     -1.413518     -2.158778
29
Coordinates from ORCA-job 1 Relaxed Surface Scan Step 10
  C      -3.387923     -1.353485     -0.128466
  C      -2.488680     -0.121215     -0.000105
  C      -2.657340      0.525306      1.372754
  C      -4.127082      0.781636      1.670551
  C      -4.941400     -0.482826      1.423786
  H      -3.050242     -2.088442      0.609798
  H      -2.132388      1.483891      1.373442
  H      -4.226413      1.053132      2.725130
  H      -4.660789     -1.239642      2.162684
  H      -2.778351      0.609208     -0.757869
  O      -4.712517     -0.982246      0.146320
  O      -1.134298     -0.468615     -0.117880
  H      -0.875745     -0.529606     -1.022427
  O      -2.161039     -0.312122      2.372404
  H      -1.279957     -0.568397      2.142201
  O      -4.553770      1.810963      0.839623
  H      -5.499308      1.790777      0.803607
  O      -6.265652     -0.137273      1.535640
  C      -7.246121     -1.123886      1.319440
  H      -7.098342     -1.575604      0.339049
  H      -8.189842     -0.581817      1.294945
  C      -7.291171     -2.181811      2.407320
  H      -8.147530     -2.838592      2.242349
  H      -6.396235     -2.805091      2.414915
  H      -7.397527     -1.719687      3.390138
  C      -3.363544     -1.980881     -1.507952
  H      -2.360906     -2.328635     -1.759809
  H      -4.035980     -2.837979     -1.539731
  H      -3.693293     -1.262840     -2.261070
29
Coordinates from ORCA-job 1 Relaxed Surface Scan Step 11
  C      -3.351382     -1.330404     -0.214947
  C      -2.464596     -0.099400     -0.010224
  C      -2.660205      0.475006      1.390827
  C      -4.136459      0.703332      1.678572
  C      -4.936345     -0.552593      1.354486
  H      -3.019311     -2.098932      0.491234
  H      -2.144277      1.436758      1.448549
  H      -4.253987      0.919440      2.744078
  H      -4.661982     -1.346806      2.056286
  H      -2.749080      0.666252     -0.734421
  O      -4.682894     -0.982397      0.055860
  O      -1.105409     -0.429115     -0.123644
  H      -0.832564     -0.442957     -1.025945
  O      -2.171655     -0.408076      2.354425
  H      -1.285443     -0.646228      2.124391
  O      -4.560388      1.770527      0.895297
  H      -5.504759      1.743012      0.838900
  O      -6.265082     -0.225441      1.459073
  C      -7.215291     -1.254156      1.319573
  H      -6.922714     -1.913729      0.503076
  H      -8.140556     -0.761807      1.024300
  C      -7.431184     -2.026595      2.608332
  H      -8.227943     -2.760780      2.472771
  H      -6.534248     -2.564566      2.918610
  H      -7.719553     -1.350873      3.414764
  C      -3.299332     -1.887762     -1.623432
  H      -2.289573     -2.213747     -1.876056
  H      -3.963072     -2.747937     -1.709024
  H      -3.624100     -1.135807     -2.344922
29
Coordinates from ORCA-job 1 Relaxed Surface Scan Step 12
  C      -3.321365     -1.318099     -0.267011
  C      -2.452181     -0.082473     -0.019256
  C      -2.655848      0.440421      1.400374
  C      -4.134974      0.641510      1.692426
  C      -4.920848     -0.612273      1.328431
  H      -2.973505     -2.107222      0.407275
  H      -2.150953      1.405347      1.492574
  H      -4.256627      0.823087      2.763946
  H      -4.647907     -1.424654      2.010704
  H      -2.746308      0.703976     -0.716793
  O      -4.657647     -1.003962      0.019581
  O      -1.088700     -0.390141     -0.143025
  H      -0.815842     -0.370872     -1.045217
  O      -2.159028     -0.469994      2.333882
  H      -1.269681     -0.689876      2.097807
  O      -4.570416      1.727647      0.942013
  H      -5.514029      1.689208      0.879194
  O      -6.253395     -0.301289      1.428138
  C      -7.180362     -1.356408      1.337934
  H      -6.782561     -2.142861      0.696598
  H      -8.061807     -0.951343      0.842388
  C      -7.551169     -1.895708      2.706487
  H      -8.307531     -2.677545      2.610799
  H      -6.687072     -2.325202      3.216419
  H      -7.955017     -1.100409      3.334361
  C      -3.265614     -1.820846     -1.695959
  H      -2.251793     -2.120980     -1.964065
  H      -3.916156     -2.687487     -1.811970
  H      -3.605047     -1.047330     -2.387246
29
Coordinates from ORCA-job 1 Relaxed Surface Scan Step 13
  C      -3.300653     -1.309390     -0.292765
  C      -2.447610     -0.064424     -0.036028
  C      -2.634312      0.426945      1.397145
  C      -4.111046      0.599130      1.718524
  C      -4.883862     -0.659694      1.343690
  H      -2.927877     -2.105634      0.359423
  H      -2.143103      1.397864      1.499735
  H      -4.216878      0.758489      2.795253
  H      -4.589333     -1.480824      2.007024
  H      -2.767428      0.730556     -0.712237
  O      -4.636547     -1.023049      0.023598
  O      -1.081573     -0.346075     -0.189750
  H      -0.826084     -0.307953     -1.096426
  O      -2.106968     -0.493598      2.303490
  H      -1.218646     -0.694605      2.047565
  O      -4.575748      1.692410      0.996611
  H      -5.519678      1.641320      0.950010
  O      -6.218632     -0.372670      1.469991
  C      -7.131942     -1.438703      1.367547
  H      -6.650356     -2.296179      0.897699
  H      -7.931872     -1.115658      0.701530
  C      -7.690384     -1.804820      2.728459
  H      -8.429832     -2.602907      2.634863
  H      -6.900720     -2.149913      3.398445
  H      -8.171803     -0.941053      3.188722
  C      -3.262731     -1.783355     -1.732036
  H      -2.249381     -2.062117     -2.023962
  H      -3.901794     -2.657753     -1.853441
  H      -3.626590     -1.002119     -2.401889
29
Coordinates from ORCA-job 1 Relaxed Surface Scan Step 14
  C      -3.290832     -1.301366     -0.301263
  C      -2.450498     -0.044952     -0.058580
  C      -2.600821      0.429183      1.384898
  C      -4.069546      0.569679      1.755605
  C      -4.830157     -0.698369      1.387146
  H      -2.889553     -2.095687      0.336992
  H      -2.125250      1.408425      1.481770
  H      -4.143333      0.712306      2.837263
  H      -4.495229     -1.524333      2.025338
  H      -2.804515      0.750795     -0.716683
  O      -4.621414     -1.035705      0.054076
  O      -1.085359     -0.301572     -0.257064
  H      -0.859165     -0.252632     -1.170982
  O      -2.027033     -0.489643      2.264312
  H      -1.143873     -0.671097      1.977765
  O      -4.576988      1.663864      1.064362
  H      -5.521004      1.598009      1.051064
  O      -6.163986     -0.444356      1.571658
  C      -7.067789     -1.511700      1.411170
  H      -6.531639     -2.412366      1.111089
  H      -7.744800     -1.260975      0.593590
  C      -7.841095     -1.738559      2.693319
  H      -8.576506     -2.534603      2.559949
  H      -7.171957     -2.021528      3.507710
  H      -8.367443     -0.829620      2.987490
  C      -3.284982     -1.765969     -1.743937
  H      -2.276210     -2.029254     -2.064574
  H      -3.915441     -2.648097     -1.853818
  H      -3.676965     -0.985658     -2.398876
29
Coordinates from ORCA-job 1 Relaxed Surface Scan Step 15
  C      -3.288852     -1.294366     -0.301238
  C      -2.463507     -0.023727     -0.082179
  C      -2.566430      0.436616      1.370264
  C      -4.021733      0.540002      1.802049
  C      -4.768552     -0.739540      1.445500
  H      -2.854640     -2.082159      0.324565
  H      -2.110145      1.425996      1.456046
  H      -4.054089      0.666188      2.887679
  H      -4.384364     -1.568369      2.052001
  H      -2.858886      0.769225     -0.719897
  O      -4.610892     -1.049847      0.099788
  O      -1.102451     -0.251435     -0.335681
  H      -0.913242     -0.191962     -1.257356
  O      -1.936203     -0.475000      2.217874
  H      -1.061764     -0.634137      1.893792
  O      -4.580252      1.632139      1.147687
  H      -5.522471      1.549764      1.178479
  O      -6.096835     -0.526171      1.703392
  C      -6.991179     -1.586893      1.471834
  H      -6.443262     -2.524101      1.357694
  H      -7.505858     -1.412403      0.525414
  C      -7.982021     -1.668874      2.612251
  H      -8.712128     -2.459074      2.426885
  H      -7.473336     -1.880604      3.553880
  H      -8.517742     -0.724893      2.720716
  C      -3.322372     -1.757055     -1.743914
  H      -2.320591     -2.004669     -2.097121
  H      -3.942781     -2.648412     -1.834805
  H      -3.746808     -0.982019     -2.384812
29
Coordinates from ORCA-job 1 Relaxed Surface Scan Step 16
  C      -3.288489     -1.288301     -0.305079
  C      -2.482182     -0.003269     -0.099551
  C      -2.541973      0.437060      1.361567
  C      -3.982503      0.503614      1.846860
  C      -4.714455     -0.787068      1.499578
  H      -2.816927     -2.073796      0.296200
  H      -2.103958      1.434983      1.443605
  H      -3.978181      0.614854      2.934567
  H      -4.290542     -1.615835      2.079546
  H      -2.916785      0.788780     -0.712407
  O      -4.600291     -1.075722      0.145135
  O      -1.126813     -0.199041     -0.404694
  H      -0.972234     -0.124003     -1.331678
  O      -1.862235     -0.470939      2.173956
  H      -0.997083     -0.607467      1.816365
  O      -4.586991      1.592169      1.228131
  H      -5.525489      1.491765      1.295418
  O      -6.036175     -0.608721      1.812594
  C      -6.914127     -1.675448      1.558753
  H      -6.393242     -2.629801      1.676210
  H      -7.249260     -1.628870      0.521444
  C      -8.087975     -1.580425      2.507245
  H      -8.802425     -2.381508      2.309394
  H      -7.755668     -1.658444      3.543192
  H      -8.600824     -0.625389      2.385432
  C      -3.363252     -1.735541     -1.751011
  H      -2.369690     -1.958974     -2.141545
  H      -3.968665     -2.638209     -1.830628
  H      -3.824950     -0.962231     -2.367813
29
Coordinates from ORCA-job 1 Relaxed Surface Scan Step 17
  C      -3.290364     -1.279313     -0.319344
  C      -2.499361      0.014621     -0.110129
  C      -2.524813      0.425953      1.360085
  C      -3.952557      0.464561      1.883958
  C      -4.675232     -0.832223      1.539573
  H      -2.783674     -2.070936      0.242757
  H      -2.096867      1.427600      1.449677
  H      -3.921319      0.561419      2.972654
  H      -4.229840     -1.661468      2.102333
  H      -2.962619      0.811642     -0.694821
  O      -4.589906     -1.104660      0.178974
  O      -1.150273     -0.154134     -0.456790
  H      -1.022887     -0.058439     -1.385995
  O      -1.812563     -0.488529      2.136635
  H      -0.955482     -0.606986      1.754036
  O      -4.588709      1.552332      1.296290
  H      -5.523704      1.435510      1.383191
  O      -5.993121     -0.671228      1.879050
  C      -6.844281     -1.770912      1.688709
  H      -6.376856     -2.674093      2.094831
  H      -6.996615     -1.938057      0.622072
  C      -8.157521     -1.492328      2.383890
  H      -8.845029     -2.328494      2.245539
  H      -8.003992     -1.341847      3.453160
  H      -8.622717     -0.594009      1.975769
  C      -3.407118     -1.691271     -1.773172
  H      -2.423748     -1.884537     -2.203664
  H      -3.997084     -2.603893     -1.855332
  H      -3.905134     -0.912061     -2.353147
29
Coordinates from ORCA-job 1 Relaxed Surface Scan Step 18
  C      -3.305177     -1.265020     -0.337115
  C      -2.518157      0.029667     -0.118215
  C      -2.503259      0.404731      1.361348
  C      -3.916190      0.427315      1.923904
  C      -4.643308     -0.866967      1.579097
  H      -2.768917     -2.068807      0.176650
  H      -2.074795      1.405028      1.463122
  H      -3.856620      0.506688      3.012970
  H      -4.188571     -1.701374      2.125565
  H      -3.003318      0.837885     -0.668602
  O      -4.587396     -1.122585      0.212368
  O      -1.178648     -0.120583     -0.508250
  H      -1.079384     -0.001403     -1.438160
  O      -1.768477     -0.526396      2.096010
  H      -0.921662     -0.633006      1.687895
  O      -4.572685      1.521483      1.371771
  H      -5.504914      1.395744      1.475253
  O      -5.957591     -0.706177      1.935072
  C      -6.777738     -1.844260      1.875038
  H      -6.412209     -2.583185      2.596170
  H      -6.724250     -2.287738      0.880892
  C      -8.195292     -1.438437      2.207528
  H      -8.853491     -2.308616      2.187737
  H      -8.244049     -0.989892      3.200524
  H      -8.564009     -0.710486      1.483818
  C      -3.472717     -1.631623     -1.798373
  H      -2.504295     -1.797400     -2.272205
  H      -4.053742     -2.549280     -1.888043
  H      -4.002521     -0.841086     -2.332981
29
Coordinates from ORCA-job 1 Relaxed Surface Scan Step 19
  C      -3.342615     -1.248527     -0.343282
  C      -2.547923      0.041275     -0.124119
  C      -2.470767      0.377572      1.362249
  C      -3.860486      0.395173      1.978987
  C      -4.608983     -0.889314      1.641579
  H      -2.777594     -2.064593      0.114855
  H      -2.031161      1.372168      1.472130
  H      -3.759349      0.455499      3.066359
  H      -4.150983     -1.732734      2.170046
  H      -3.054686      0.863772     -0.632049
  O      -4.597767     -1.132531      0.270393
  O      -1.226020     -0.098578     -0.573837
  H      -1.166518      0.040961     -1.504307
  O      -1.714826     -0.576807      2.043756
  H      -0.884625     -0.677034      1.601320
  O      -4.531841      1.501751      1.471621
  H      -5.460705      1.374321      1.600963
  O      -5.914925     -0.712146      2.021274
  C      -6.727599     -1.857204      2.095074
  H      -6.558877     -2.327601      3.068840
  H      -6.449935     -2.562728      1.312074
  C      -8.174881     -1.445443      1.951380
  H      -8.828633     -2.314102      2.047405
  H      -8.446431     -0.723375      2.722590
  H      -8.345271     -0.987685      0.976431
  C      -3.581003     -1.569739     -1.805627
  H      -2.636755     -1.715037     -2.332193
  H      -4.162073     -2.487344     -1.895491
  H      -4.140153     -0.765750     -2.287629
29
Coordinates from ORCA-job 1 Relaxed Surface Scan Step 20
  C      -3.514310     -1.227916     -0.267905
  C      -2.673742      0.043348     -0.123348
  C      -2.433300      0.361863      1.350299
  C      -3.746616      0.385157      2.117628
  C      -4.546806     -0.879954      1.832370
  H      -2.931871     -2.058668      0.143428
  H      -1.973979      1.350939      1.422511
  H      -3.524008      0.415641      3.187718
  H      -4.029083     -1.744955      2.262628
  H      -3.216607      0.879695     -0.567817
  O      -4.702039     -1.075633      0.462944
  O      -1.409798     -0.114724     -0.711332
  H      -1.446425      0.031440     -1.641990
  O      -1.617477     -0.607659      1.934119
  H      -0.841762     -0.710119      1.402372
  O      -4.451295      1.513619      1.714169
  H      -5.358516      1.403238      1.959730
  O      -5.784080     -0.718740      2.398088
  C      -6.687628     -1.796485      2.334515
  H      -7.074996     -1.949769      3.342984
  H      -6.159408     -2.705929      2.042724
  C      -7.822199     -1.510930      1.372121
  H      -8.539260     -2.334914      1.377924
  H      -8.347926     -0.600152      1.663442
  H      -7.441976     -1.381799      0.359961
  C      -3.894211     -1.544311     -1.700722
  H      -3.006146     -1.717527     -2.309887
  H      -4.506669     -2.445184     -1.733667
  H      -4.471250     -0.725354     -2.134214
29
Coordinates from ORCA-job 1 Relaxed Surface Scan Step 21
  C      -3.543783     -1.199528     -0.284327
  C      -2.675275      0.050061     -0.119641
  C      -2.419078      0.331211      1.358392
  C      -3.728236      0.372985      2.130969
  C      -4.563694     -0.866511      1.830364
  H      -2.973456     -2.049447      0.102132
  H      -1.933489      1.306095      1.449179
  H      -3.501511      0.380031      3.200662
  H      -4.074419     -1.751213      2.253468
  H      -3.201282      0.907737     -0.543017
  O      -4.723444     -1.042543      0.458432
  O      -1.418884     -0.124904     -0.719235
  H      -1.457046      0.045157     -1.645747
  O      -1.626755     -0.671513      1.918235
  H      -0.855795     -0.782796      1.381357
  O      -4.405419      1.525638      1.749252
  H      -5.314646      1.433302      1.994903
  O      -5.794792     -0.669950      2.398616
  C      -6.716011     -1.733667      2.412718
  H      -7.211651     -1.686200      3.382776
  H      -6.181972     -2.685632      2.358847
  C      -7.741604     -1.627172      1.301296
  H      -8.477784     -2.428793      1.395629
  H      -8.267426     -0.673033      1.362820
  H      -7.267215     -1.695870      0.324627
  C      -3.941064     -1.476068     -1.720804
  H      -3.061155     -1.649123     -2.341734
  H      -4.568091     -2.366142     -1.769781
  H      -4.508405     -0.637891     -2.129601
29
Coordinates from ORCA-job 1 Relaxed Surface Scan Step 22
  C      -3.567586     -1.171346     -0.303326