24
Coordinates from ORCA-job 10 Relaxed Surface Scan Step 1
  O      31.402070    -24.213083     -5.218889
  C      31.702188    -24.347177     -3.945673
  O      32.733858    -23.961674     -3.496226
  C      30.594629    -24.970778     -3.106366
  C      31.203383    -25.695513     -1.880428
  O      32.257634    -26.528085     -2.267734
  H      30.018069    -24.110745     -2.746153
  H      30.439045    -26.368332     -1.499586
  H      33.020236    -25.996387     -2.443429
  C      31.599094    -24.771744     -0.734010
  H      31.982328    -25.370528      0.093600
  H      32.367419    -24.061872     -1.035563
  H      30.734569    -24.210069     -0.374125
  C      29.644302    -25.856086     -3.930059
  H      29.351326    -25.302096     -4.819596
  H      30.187868    -26.740321     -4.271407
  C      32.348918    -23.598474     -6.066129
  H      33.279712    -24.160677     -6.072796
  H      31.908481    -23.593082     -7.057859
  H      32.552472    -22.581050     -5.740248
  C      28.374091    -26.277509     -3.194450
  H      27.711753    -26.816776     -3.873713
  H      28.569925    -26.936806     -2.348720
  H      27.824630    -25.409136     -2.821438
24
Coordinates from ORCA-job 10 Relaxed Surface Scan Step 2
  O      31.335073    -23.974660     -5.117241
  C      31.739442    -24.473012     -3.967140
  O      32.883188    -24.461975     -3.640996
  C      30.591421    -24.993818     -3.116950
  C      31.100779    -25.619985     -1.802515
  O      31.995386    -26.661530     -2.053822
  H      29.999344    -24.106458     -2.867653
  H      30.242095    -26.086458     -1.324387
  H      32.796237    -26.293584     -2.399126
  C      31.663241    -24.609792     -0.806457
  H      31.949228    -25.131850      0.107571
  H      32.541108    -24.097586     -1.196867
  H      30.912003    -23.860453     -0.547403
  C      29.691122    -25.927348     -3.950853
  H      29.380448    -25.373417     -4.836056
  H      30.281040    -26.780130     -4.294315
  C      32.304189    -23.432205     -5.988224
  H      33.035769    -24.186973     -6.267339
  H      31.765379    -23.091578     -6.866431
  H      32.819221    -22.597544     -5.517898
  C      28.443257    -26.430280     -3.230597
  H      27.796223    -26.957737     -3.933504
  H      28.677649    -27.125440     -2.424733
  H      27.865159    -25.604187     -2.808065
24
Coordinates from ORCA-job 10 Relaxed Surface Scan Step 3
  O      31.328028    -23.772348     -4.977123
  C      31.723474    -24.549949     -3.990055
  O      32.865564    -24.840665     -3.826649
  C      30.567616    -25.017025     -3.126857
  C      31.048663    -25.564171     -1.769363
  O      31.846732    -26.696600     -1.926712
  H      29.945120    -24.136834     -2.946673
  H      30.161967    -25.903208     -1.235843
  H      32.629024    -26.448597     -2.399712
  C      31.722380    -24.512561     -0.892013
  H      31.981204    -24.959990      0.068113
  H      32.638465    -24.133326     -1.344790
  H      31.053047    -23.669663     -0.706050
  C      29.731369    -26.024644     -3.944553
  H      29.459497    -25.540737     -4.884050
  H      30.357610    -26.883615     -4.193050
  C      32.299263    -23.296933     -5.884474
  H      32.798470    -24.125220     -6.382323
  H      31.765483    -22.691971     -6.610166
  H      33.043440    -22.693748     -5.369321
  C      28.460258    -26.507734     -3.253577
  H      27.870445    -27.116917     -3.940577
  H      28.675873    -27.122001     -2.379632
  H      27.835009    -25.669540     -2.935550
24
Coordinates from ORCA-job 10 Relaxed Surface Scan Step 4
  O      31.379698    -23.608580     -4.819183
  C      31.680071    -24.629520     -4.045218
  O      32.738415    -25.173012     -4.080023
  C      30.529226    -25.058794     -3.160277
  C      31.024554    -25.514380     -1.773225
  O      31.779933    -26.682613     -1.849533
  H      29.880607    -24.191120     -3.030916
  H      30.140263    -25.771467     -1.190985
  H      32.507755    -26.537497     -2.439082
  C      31.765840    -24.417414     -1.014174
  H      32.033940    -24.782807     -0.022704
  H      32.688171    -24.130058     -1.522295
  H      31.144028    -23.527337     -0.896366
  C      29.742233    -26.150622     -3.916174
  H      29.513649    -25.776026     -4.917061
  H      30.387444    -27.020094     -4.044120
  C      32.351671    -23.160384     -5.740212
  H      32.616489    -23.953674     -6.435654
  H      31.902543    -22.329392     -6.274245
  H      33.248999    -22.830871     -5.221472
  C      28.442179    -26.572593     -3.239267
  H      27.896485    -27.270994     -3.875905
  H      28.623067    -27.073857     -2.288478
  H      27.790741    -25.714892     -3.054432
24
Coordinates from ORCA-job 10 Relaxed Surface Scan Step 5
  O      31.501683    -23.489763     -4.629144
  C      31.593863    -24.714893     -4.160528
  O      32.490101    -25.447617     -4.435917
  C      30.450832    -25.109339     -3.249199
  C      30.996116    -25.440060     -1.841950
  O      31.742546    -26.616838     -1.839135
  H      29.785419    -24.250116     -3.162356
  H      30.134348    -25.632760     -1.203959
  H      32.395447    -26.581322     -2.525264
  C      31.780093    -24.287227     -1.221552
  H      32.076779    -24.556025     -0.207745
  H      32.691978    -24.073574     -1.784158
  H      31.181971    -23.375047     -1.178573
  C      29.688477    -26.286916     -3.886227
  H      29.419338    -26.016872     -4.910729
  H      30.362383    -27.138872     -3.962414
  C      32.514098    -23.031720     -5.500828
  H      32.564018    -23.654184     -6.391266
  H      32.245740    -22.015173     -5.769138
  H      33.482314    -23.045068     -5.005474
  C      28.424728    -26.694797     -3.135986
  H      27.890182    -27.466761     -3.691992
  H      28.651656    -27.103335     -2.151177
  H      27.743890    -25.849721     -3.006289
24
Coordinates from ORCA-job 10 Relaxed Surface Scan Step 6
  O      31.604764    -23.458922     -4.459513
  C      31.517136    -24.759427     -4.270540
  O      32.231310    -25.542342     -4.807048
  C      30.416944    -25.159973     -3.306965
  C      31.016021    -25.406259     -1.901461
  O      31.811136    -26.553433     -1.874680
  H      29.730060    -24.316274     -3.230206
  H      30.180486    -25.613937     -1.234781
  H      32.439331    -26.537865     -2.582930
  C      31.770754    -24.207469     -1.336441
  H      32.086046    -24.431089     -0.317294
  H      32.667726    -23.984350     -1.917924
  H      31.147068    -23.312424     -1.321841
  C      29.674391    -26.398957     -3.840026
  H      29.439296    -26.253597     -4.896057
  H      30.348391    -27.252365     -3.803575
  C      32.608512    -22.979441     -5.328834
  H      32.475387    -23.385174     -6.329062
  H      32.504404    -21.899476     -5.346097
  H      33.596319    -23.254128     -4.965168
  C      28.388173    -26.724157     -3.086252
  H      27.872026    -27.557744     -3.565334
  H      28.580670    -27.015506     -2.053236
  H      27.701650    -25.873691     -3.075735
24
Coordinates from ORCA-job 10 Relaxed Surface Scan Step 7
  O      31.717332    -23.491069     -4.336712
  C      31.457061    -24.785626     -4.362268
  O      31.969024    -25.528903     -5.130643
  C      30.422247    -25.203715     -3.330723
  C      31.060107    -25.408320     -1.934516
  O      31.931413    -26.502032     -1.922115
  H      29.723066    -24.369185     -3.246085
  H      30.247721    -25.688442     -1.266526
  H      32.623042    -26.391281     -2.557456
  C      31.730987    -24.172771     -1.345280
  H      32.040625    -24.391465     -0.323128
  H      32.617751    -23.884227     -1.910627
  H      31.053049    -23.318552     -1.330920
  C      29.679889    -26.468377     -3.798061
  H      29.501786    -26.410104     -4.871783
  H      30.334600    -27.326601     -3.656609
  C      32.657805    -22.984230     -5.258221
  H      32.332553    -23.168980     -6.279564
  H      32.720016    -21.916656     -5.073374
  H      33.631857    -23.446031     -5.110488
  C      28.351127    -26.704137     -3.085068
  H      27.858715    -27.590336     -3.488930
  H      28.476306    -26.867254     -2.013725
  H      27.669920    -25.859707     -3.218179
24
Coordinates from ORCA-job 10 Relaxed Surface Scan Step 8
  O      32.048713    -23.739326     -4.253649
  C      31.362435    -24.843658     -4.534655
  O      31.514038    -25.433616     -5.546940
  C      30.414615    -25.217821     -3.411692
  C      31.211388    -25.433657     -2.090857
  O      32.470639    -25.992035     -2.343155
  H      29.755566    -24.354643     -3.279552
  H      30.680357    -26.193615     -1.522030
  H      33.084168    -25.310868     -2.571513
  C      31.313728    -24.191678     -1.215804
  H      31.868876    -24.429597     -0.307083
  H      31.821815    -23.378080     -1.733879
  H      30.321828    -23.840030     -0.927178
  C      29.567153    -26.430200     -3.813404
  H      29.228777    -26.286843     -4.839511
  H      30.203844    -27.317409     -3.824904
  C      32.954327    -23.262321     -5.224930
  H      32.435826    -23.029928     -6.152379
  H      33.398598    -22.361876     -4.811976
  H      33.726006    -24.001139     -5.430842
  C      28.349266    -26.659593     -2.922394
  H      27.777819    -27.519588     -3.275355
  H      28.616516    -26.856375     -1.882687
  H      27.681700    -25.794104     -2.934631
24
Coordinates from ORCA-job 10 Relaxed Surface Scan Step 9
  O      32.120808    -23.794493     -4.212013
  C      31.319281    -24.801030     -4.546468
  O      31.336774    -25.280948     -5.626167
  C      30.403528    -25.213702     -3.406589
  C      31.196862    -25.411095     -2.085040
  O      32.443870    -25.998869     -2.330229
  H      29.715353    -24.371941     -3.275048
  H      30.652555    -26.150385     -1.501644
  H      33.058556    -25.334985     -2.602058
  C      31.320802    -24.158453     -1.227346
  H      31.869172    -24.395588     -0.314330
  H      31.845098    -23.360430     -1.752244
  H      30.334609    -23.786161     -0.944444
  C      29.593840    -26.456252     -3.799333
  H      29.280995    -26.354488     -4.837113
  H      30.253369    -27.326687     -3.765378
  C      32.984510    -23.283313     -5.204907
  H      32.415306    -22.907774     -6.052084
  H      33.537477    -22.473112     -4.739697
  H      33.668895    -24.053089     -5.554708
  C      28.360045    -26.692140     -2.932262
  H      27.823368    -27.580227     -3.269919
  H      28.604525    -26.845012     -1.879591
  H      27.668402    -25.847826     -2.992390
24
Coordinates from ORCA-job 10 Relaxed Surface Scan Step 10
  O      32.179822    -23.850818     -4.186645
  C      31.278480    -24.757064     -4.550541
  O      31.183625    -25.126122     -5.669438
  C      30.392466    -25.207368     -3.398162
  C      31.179705    -25.387903     -2.073944
  O      32.410352    -26.013879     -2.302710
  H      29.676067    -24.388601     -3.266114
  H      30.614859    -26.098498     -1.474542
  H      33.028440    -25.378094     -2.628602
  C      31.331382    -24.121917     -1.239368
  H      31.866877    -24.358211     -0.318593
  H      31.880508    -23.346515     -1.771783
  H      30.353137    -23.719937     -0.969077
  C      29.618864    -26.474759     -3.790973
  H      29.323916    -26.394127     -4.835071
  H      30.299745    -27.327350     -3.729722
  C      33.008878    -23.306343     -5.191997
  H      32.412201    -22.808447     -5.952674
  H      33.655642    -22.588424     -4.697157
  H      33.603634    -24.084757     -5.664546
  C      28.375089    -26.731237     -2.944277
  H      27.870243    -27.639242     -3.278122
  H      28.602325    -26.860671     -1.884683
  H      27.661741    -25.907718     -3.032260
24
Coordinates from ORCA-job 10 Relaxed Surface Scan Step 11
  O      32.227337    -23.906278     -4.173486
  C      31.238767    -24.710659     -4.548471
  O      31.048358    -24.971878     -5.685739
  C      30.380065    -25.197544     -3.388096
  C      31.162299    -25.365258     -2.061761
  O      32.378333    -26.023394     -2.273574
  H      29.637964    -24.402141     -3.252738
  H      30.579800    -26.049913     -1.449060
  H      32.998251    -25.415694     -2.646172
  C      31.337893    -24.086931     -1.249894
  H      31.863223    -24.319073     -0.322312
  H      31.907536    -23.333058     -1.791130
  H      30.367351    -23.658988     -0.991476
  C      29.640795    -26.484908     -3.788292
  H      29.354547    -26.410740     -4.835009
  H      30.342410    -27.319728     -3.716603
  C      33.032089    -23.336028     -5.184924
  H      32.428896    -22.733248     -5.859585
  H      33.760695    -22.711436     -4.677462
  H      33.535503    -24.110786     -5.758518
  C      28.394504    -26.772725     -2.955557
  H      27.917034    -27.693322     -3.295194
  H      28.612780    -26.896615     -1.893520
  H      27.661571    -25.967654     -3.052426
24
Coordinates from ORCA-job 10 Relaxed Surface Scan Step 12
  O      32.265312    -23.960319     -4.168120
  C      31.200308    -24.661189     -4.540469
  O      30.929032    -24.818177     -5.680725
  C      30.365487    -25.183712     -3.376699
  C      31.142931    -25.342083     -2.048500
  O      32.344811    -26.029503     -2.243019
  H      29.599087    -24.412676     -3.236414
  H      30.543816    -26.001641     -1.424261
  H      32.965836    -25.450952     -2.657763
  C      31.341577    -24.052418     -1.259181
  H      31.857768    -24.279159     -0.325238
  H      31.930288    -23.320256     -1.809578
  H      30.379100    -23.599689     -1.012755
  C      29.660430    -26.487710     -3.790882
  H      29.374422    -26.408996     -4.837336
  H      30.383447    -27.304249     -3.722941
  C      33.054145    -23.371740     -5.182096
  H      32.461490    -22.677890     -5.773293
  H      33.854070    -22.841259     -4.675014
  H      33.465850    -24.133884     -5.839448
  C      28.419034    -26.816915     -2.966254
  H      27.966221    -27.744688     -3.319893
  H      28.636952    -26.949650     -1.905362
  H      27.666587    -26.029244     -3.055758
24
Coordinates from ORCA-job 10 Relaxed Surface Scan Step 13
  O      32.295570    -24.014483     -4.167927
  C      31.163039    -24.607944     -4.526934
  O      30.823464    -24.662257     -5.658519
  C      30.348110    -25.165393     -3.364409
  C      31.119926    -25.317358     -2.034004
  O      32.307211    -26.033246     -2.210162
  H      29.558392    -24.419837     -3.218694
  H      30.504061    -25.951290     -1.399506
  H      32.929502    -25.485663     -2.663271
  C      31.342272    -24.017122     -1.267771
  H      31.849151    -24.237618     -0.327345
  H      31.950312    -23.308137     -1.827483
  H      30.388720    -23.539090     -1.034543
  C      29.677965    -26.483047     -3.799030
  H      29.382361    -26.389916     -4.841832
  H      30.424044    -27.279698     -3.749742
  C      33.075459    -23.414368     -5.182425
  H      32.508413    -22.639456     -5.692343
  H      33.937810    -22.980661     -4.685840
  H      33.394375    -24.156351     -5.910491
  C      28.450772    -26.864981     -2.975897
  H      28.019637    -27.794169     -3.352220
  H      28.679315    -27.021270     -1.920669
  H      27.678119    -26.094643     -3.039941
24
Coordinates from ORCA-job 10 Relaxed Surface Scan Step 14
  O      32.320672    -24.075861     -4.170193
  C      31.124701    -24.543948     -4.507196
  O      30.728275    -24.490244     -5.620373
  C      30.321191    -25.134668     -3.352718
  C      31.081285    -25.282618     -2.017144
  O      32.248503    -26.035502     -2.166913
  H      29.508725    -24.415628     -3.203425
  H      30.442247    -25.881979     -1.372192
  H      32.876064    -25.528578     -2.658567
  C      31.335779    -23.971127     -1.279421
  H      31.826060    -24.184677     -0.328751
  H      31.972793    -23.295272     -1.848019
  H      30.395533    -23.457761     -1.068076
  C      29.688655    -26.461199     -3.820765
  H      29.351612    -26.329470     -4.847153
  H      30.465577    -27.228983     -3.834207
  C      33.103156    -23.475592     -5.182920
  H      32.583945    -22.621846     -5.611258
  H      34.022634    -23.152600     -4.704874
  H      33.320939    -24.190220     -5.972921
  C      28.507276    -26.933181     -2.977695
  H      28.084332    -27.844210     -3.404405
  H      28.784587    -27.160558     -1.947794
  H      27.713459    -26.182274     -2.954019
24
Coordinates from ORCA-job 10 Relaxed Surface Scan Step 15
  O      32.336374    -24.148557     -4.173931
  C      31.084188    -24.464850     -4.481209
  O      30.646929    -24.291590     -5.566717
  C      30.280056    -25.086474     -3.344293
  C      31.017342    -25.234921     -1.998318
  O      32.151228    -26.042440     -2.110141
  H      29.445726    -24.393918     -3.196145
  H      30.342904    -25.784128     -1.344789
  H      32.794870    -25.590347     -2.633630
  C      31.321383    -23.914487     -1.295237
  H      31.783873    -24.121892     -0.329502
  H      32.001851    -23.288132     -1.870415
  H      30.403873    -23.349695     -1.117611
  C      29.690281    -26.417015     -3.858542
  H      29.271539    -26.229828     -4.846247
  H      30.503342    -27.135191     -3.985258
  C      33.135057    -23.561432     -5.182008
  H      32.691939    -22.630316     -5.526265
  H      34.103077    -23.370477     -4.729609
  H      33.241583    -24.236942     -6.027283
  C      28.605691    -27.023264     -2.972874
  H      28.167709    -27.893196     -3.465103
  H      28.988581    -27.358962     -2.008961
  H      27.798603    -26.309945     -2.786912
24
Coordinates from ORCA-job 10 Relaxed Surface Scan Step 16
  O      32.338940    -24.223401     -4.184242
  C      31.048457    -24.389079     -4.449872
  O      30.582904    -24.094549     -5.496741
  C      30.243283    -25.041605     -3.333406
  C      30.958991    -25.193778     -1.978236
  O      32.061043    -26.047033     -2.057384
  H      29.388423    -24.375577     -3.187380
  H      30.254266    -25.699591     -1.321217
  H      32.714724    -25.646888     -2.610164
  C      31.308214    -23.869663     -1.303306
  H      31.745931    -24.070944     -0.324923
  H      32.026069    -23.289552     -1.882145
  H      30.413960    -23.260351     -1.156768
  C      29.698222    -26.376219     -3.888489
  H      29.215472    -26.157231     -4.840669
  H      30.538072    -27.041501     -4.100098
  C      33.150986    -23.647639     -5.188170
  H      32.792796    -22.654114     -5.445996
  H      34.151926    -23.588466     -4.772512
  H      33.151007    -24.267301     -6.081578
  C      28.703129    -27.091944     -2.980541
  H      28.269823    -27.945377     -3.504745
  H      29.170125    -27.473632     -2.072674
  H      27.881237    -26.432565     -2.689744
24
Coordinates from ORCA-job 10 Relaxed Surface Scan Step 17
  O      32.332664    -24.296878     -4.203032
  C      31.021807    -24.326886     -4.415563
  O      30.537601    -23.912566     -5.412116
  C      30.218075    -25.011402     -3.319955
  C      30.918877    -25.163875     -1.958238
  O      32.000809    -26.043676     -2.014465
  H      29.344621    -24.370608     -3.177573
  H      30.196266    -25.641384     -1.298974
  H      32.655678    -25.682346     -2.592258
  C      31.297127    -23.836487     -1.306138
  H      31.720834    -24.028372     -0.319856
  H      32.037535    -23.289772     -1.890100
  H      30.419506    -23.198703     -1.182119
  C      29.717971    -26.351474     -3.904887
  H      29.206591    -26.124448     -4.840965
  H      30.578929    -26.975971     -4.152401
  C      33.151042    -23.722007     -5.202296
  H      32.876115    -22.683766     -5.370743
  H      34.170099    -23.784352     -4.833866
  H      33.055106    -24.270294     -6.136283
  C      28.773817    -27.134242     -2.998132
  H      28.364360    -27.989822     -3.537791
  H      29.280142    -27.520013     -2.113516
  H      27.932428    -26.518655     -2.669733
24
Coordinates from ORCA-job 10 Relaxed Surface Scan Step 18
  O      32.319636    -24.371823     -4.231235
  C      31.002764    -24.274799     -4.379769
  O      30.511254    -23.737478     -5.311759
  C      30.200278    -24.992286     -3.306818
  C      30.890042    -25.140350     -1.939007
  O      31.960635    -26.034517     -1.976168
  H      29.310605    -24.374652     -3.168321
  H      30.156620    -25.598549     -1.277505
  H      32.612154    -25.703970     -2.575969
  C      31.285708    -23.808153     -1.307831
  H      31.700919    -23.987915     -0.315807
  H      32.040442    -23.286541     -1.897548
  H      30.419472    -23.151775     -1.202614
  C      29.745433    -26.338287     -3.913451
  H      29.228203    -26.115033     -4.848117
  H      30.626044    -26.931582     -4.167502
  C      33.141510    -23.788126     -5.222307
  H      32.952936    -22.719884     -5.295120
  H      34.166247    -23.966986     -4.912432
  H      32.956792    -24.247591     -6.190271
  C      28.825586    -27.162810     -3.018942
  H      28.447707    -28.026761     -3.568207
  H      29.344425    -27.538146     -2.137168
  H      27.962588    -26.579985     -2.687131
24
Coordinates from ORCA-job 10 Relaxed Surface Scan Step 19
  O      32.298252    -24.450752     -4.269982
  C      30.989147    -24.228950     -4.341338
  O      30.506568    -23.561135     -5.189572
  C      30.186364    -24.980873     -3.295144
  C      30.867358    -25.119187     -1.921134
  O      31.932044    -26.020556     -1.940412
  H      29.281584    -24.385641     -3.161348
  H      30.127005    -25.562504     -1.256857
  H      32.576816    -25.718437     -2.562341
  C      31.273368    -23.780268     -1.311838
  H      31.681257    -23.945081     -0.314324
  H      32.039305    -23.280164     -1.907009
  H      30.415486    -23.110388     -1.226261
  C      29.777368    -26.333295     -3.917450
  H      29.267584    -26.119449     -4.859345
  H      30.676490    -26.901492     -4.162024
  C      33.125432    -23.849488     -5.245618
  H      33.032938    -22.766676     -5.211589
  H      34.142222    -24.145834     -5.008072
  H      32.856782    -24.197084     -6.240224
  C      28.866579    -27.185927     -3.040228
  H      28.523367    -28.060122     -3.595985
  H      29.383020    -27.545728     -2.150665
  H      27.981664    -26.628970     -2.722242
24
Coordinates from ORCA-job 10 Relaxed Surface Scan Step 20
  O      32.267250    -24.533090     -4.324466
  C      30.981790    -24.189766     -4.300329
  O      30.528624    -23.384126     -5.037493
  C      30.176764    -24.978077     -3.285738
  C      30.851629    -25.100196     -1.905049
  O      31.917239    -26.000373     -1.908211
  H      29.257623    -24.404894     -3.157475
  H      30.108698    -25.534406     -1.237363
  H      32.551891    -25.723731     -2.552253
  C      31.258809    -23.752338     -1.317482
  H      31.660029    -23.899819     -0.314683
  H      32.032677    -23.268374     -1.916957
  H      30.405165    -23.075079     -1.252275
  C      29.815089    -26.338658     -3.915768
  H      29.330436    -26.141185     -4.875250
  H      30.731664    -26.889453     -4.130227
  C      33.102917    -23.904509     -5.274798
  H      33.118757    -22.828342     -5.119648
  H      34.095830    -24.318175     -5.129346
  H      32.755912    -24.111650     -6.284250
  C      28.893972    -27.203806     -3.061860
  H      28.588896    -28.090968     -3.619290
  H      29.389342    -27.542927     -2.152344
  H      27.986995    -26.664060     -2.778446
24
Coordinates from ORCA-job 10 Relaxed Surface Scan Step 21
  O      32.223324    -24.617615     -4.402915
  C      30.982345    -24.158242     -4.255306
  O      30.586371    -23.212151     -4.843583
  C      30.173767    -24.984282     -3.277193
  C      30.845825    -25.082179     -1.889217
  O      31.923599    -25.967803     -1.879990
  H      29.240478    -24.433576     -3.155463
  H      30.107012    -25.518432     -1.218096
  H      32.542953    -25.712013     -2.547315
  C      31.238222    -23.722836     -1.319404
  H      31.630273    -23.851931     -0.310551
  H      32.016995    -23.245195     -1.918478
  H      30.382169    -23.047291     -1.276599
  C      29.862458    -26.356119     -3.905265
  H      29.430891    -26.184083     -4.895163
  H      30.794110    -26.899449     -4.060172
  C      33.071466    -23.954581     -5.317700
  H      33.213472    -22.916232     -5.027153
  H      34.019215    -24.483132     -5.293651
  H      32.651211    -23.987044     -6.320041
  C      28.903827    -27.215184     -3.087145
  H      28.644352    -28.120249     -3.638843
  H      29.349163    -27.525443     -2.141895
  H      27.974501    -26.682940     -2.869864
24
Coordinates from ORCA-job 10 Relaxed Surface Scan Step 22
  O      32.165838    -24.699072     -4.514469
  C      30.998046    -24.140219     -4.203036
  O      30.686422    -23.073636     -4.608282
  C      30.193430    -25.001475     -3.255944
  C      30.868836    -25.067200     -1.862122
  O      31.987843    -25.901028     -1.854209
  H      29.245286    -24.476200     -3.137855
  H      30.151566    -25.540469     -1.192563
  H      32.582002    -25.644128     -2.543648
  C      31.200127    -23.693621     -1.289072
  H      31.583924    -23.809107     -0.275452
  H      31.966905    -23.185304     -1.878127
  H      30.319580    -23.050203     -1.259530
  C      29.938020    -26.389992     -3.869959
  H      29.634853    -26.259184     -4.912513
  H      30.872846    -26.947128     -3.892728
  C      33.016961    -24.007174     -5.404385
  H      33.305146    -23.043345     -4.990825
  H      33.892449    -24.634604     -5.538554
  H      32.521955    -23.847702     -6.359352
  C      28.875044    -27.204054     -3.139153
  H      28.686281    -28.140610     -3.666484
  H      29.186760    -27.459699     -2.125935
  H      27.927880    -26.662847     -3.076804
24
Coordinates from ORCA-job 10 Relaxed Surface Scan Step 23
  O      32.097962    -24.777165     -4.660657
  C      31.041721    -24.148403     -4.150392
  O      30.830104    -23.005877     -4.374306
  C      30.259758    -25.034043     -3.207422
  C      30.948960    -25.062226     -1.814754
  O      32.155781    -25.765026     -1.837440
  H      29.298662    -24.534452     -3.082346
  H      30.293515    -25.640647     -1.163722
  H      32.707340    -25.453780     -2.539114
  C      31.127201    -23.683484     -1.190597
  H      31.535222    -23.796647     -0.186148
  H      31.816481    -23.063031     -1.765750
  H      30.177410    -23.151011     -1.124919
  C      30.051809    -26.450680     -3.778954
  H      30.012427    -26.403921     -4.869571
  H      30.927493    -27.053524     -3.544489
  C      32.921183    -24.068770     -5.562719
  H      33.365388    -23.200507     -5.080845
  H      33.696290    -24.761192     -5.875619
  H      32.347189    -23.736877     -6.424750
  C      28.793665    -27.134827     -3.253601
  H      28.703068    -28.140868     -3.666661
  H      28.805759    -27.230465     -2.166379
  H      27.893611    -26.580579     -3.529846
24
Coordinates from ORCA-job 10 Relaxed Surface Scan Step 24
  O      31.900322    -24.912514     -5.155908
  C      31.462648    -24.254435     -4.105902
  O      31.820777    -23.150141     -3.849101
  C      30.456442    -25.012785     -3.253917
  C      30.991729    -25.052785     -1.796073
  O      32.367003    -25.322762     -1.782252
  H      29.558136    -24.389016     -3.270328
  H      30.532552    -25.908797     -1.307024
  H      32.849705    -24.519375     -1.908549
  C      30.656320    -23.812851     -0.978692
  H      31.057094    -23.922129      0.030413
  H      31.076547    -22.914878     -1.430982
  H      29.575573    -23.680721     -0.903796
  C      30.093285    -26.398455     -3.804403
  H      29.903729    -26.308977     -4.873602
  H      30.953598    -27.062501     -3.698404
  C      32.842039    -24.279249     -5.993826
  H      33.751216    -24.048330     -5.443208
  H      33.058398    -24.982184     -6.791783
  H      32.434037    -23.358464     -6.404429
  C      28.860475    -27.020765     -3.152438
  H      28.630396    -27.979884     -3.619454
  H      28.992270    -27.207055     -2.085829
  H      27.983708    -26.378947     -3.271513
