24
Coordinates from ORCA-job 11 Relaxed Surface Scan Step 1
  C      31.783550    -28.713285     14.101391
  C      30.853607    -28.963430     15.289283
  C      31.544583    -29.564566     16.517620
  C      32.387531    -28.629086     17.384845
  C      32.593669    -27.161528     17.128318
  C      31.759495    -27.608524     18.284934
  H      32.219362    -29.668081     13.790793
  H      32.624072    -28.087291     14.408927
  H      30.336880    -28.036699     15.558719
  H      30.065599    -29.652200     14.970178
  H      32.184540    -30.382837     16.175856
  H      30.789843    -30.030243     17.157326
  H      33.250448    -29.124093     17.819723
  H      33.575369    -26.747792     17.331996
  H      32.094092    -26.696214     16.288892
  H      30.688357    -27.478903     18.150483
  C      31.080371    -28.069641     12.910460
  H      31.767379    -27.928681     12.073660
  H      30.250895    -28.687485     12.557566
  H      30.672771    -27.089921     13.172068
  C      32.224742    -27.422958     19.710424
  H      31.990124    -26.420130     20.075345
  H      31.745946    -28.142158     20.379275
  H      33.304775    -27.561252     19.791918
24
Coordinates from ORCA-job 11 Relaxed Surface Scan Step 2
  C      31.825361    -28.714215     14.116772
  C      30.806406    -28.936373     15.234009
  C      31.398662    -29.494785     16.531189
  C      32.304098    -28.569476     17.350689
  C      32.398563    -27.080119     17.159065
  C      31.753891    -27.636467     18.386550
  H      32.311814    -29.668080     13.888698
  H      32.618323    -28.047867     14.463955
  H      30.268144    -28.004899     15.434790
  H      30.047821    -29.640818     14.878620
  H      31.969273    -30.393102     16.281562
  H      30.578893    -29.837411     17.168172
  H      33.245249    -29.031515     17.631723
  H      33.376819    -26.621741     17.255665
  H      31.767055    -26.602296     16.421263
  H      30.668989    -27.566471     18.402554
  C      31.208387    -28.145859     12.842538
  H      31.960413    -28.017382     12.061451
  H      30.431181    -28.805512     12.448711
  H      30.750931    -27.170137     13.024446
  C      32.397869    -27.497915     19.746200
  H      32.163180    -26.530799     20.197241
  H      32.052048    -28.277810     20.428872
  H      33.484629    -27.575950     19.675265
24
Coordinates from ORCA-job 11 Relaxed Surface Scan Step 3
  C      31.866262    -28.731758     14.130224
  C      30.766182    -28.899469     15.177354
  C      31.254429    -29.408652     16.536388
  C      32.201534    -28.495294     17.320467
  C      32.178649    -26.994610     17.227645
  C      31.752643    -27.675401     18.490309
  H      32.373729    -29.691968     13.990693
  H      32.625507    -28.039645     14.502727
  H      30.233583    -27.952558     15.303349
  H      30.022878    -29.607797     14.797481
  H      31.752769    -30.370247     16.389958
  H      30.376661    -29.626002     17.151055
  H      33.202178    -28.903304     17.425586
  H      33.130079    -26.474056     17.221630
  H      31.417717    -26.516641     16.623438
  H      30.679984    -27.682255     18.665567
  C      31.347733    -28.235375     12.784133
  H      32.158053    -28.137556     12.058866
  H      30.609078    -28.922920     12.364629
  H      30.870105    -27.257097     12.879974
  C      32.579908    -27.580171     19.750880
  H      32.356386    -26.662414     20.299994
  H      32.384696    -28.424229     20.416687
  H      33.647254    -27.577583     19.520966
24
Coordinates from ORCA-job 11 Relaxed Surface Scan Step 4
  C      31.904809    -28.771743     14.139186
  C      30.741858    -28.844544     15.127714
  C      31.130597    -29.308130     16.534270
  C      32.102607    -28.407238     17.291781
  C      31.952780    -26.913216     17.335890
  C      31.758666    -27.728255     18.579473
  H      32.388113    -29.752760     14.082026
  H      32.663257    -28.081173     14.517219
  H      30.253866    -27.867784     15.185506
  H      29.986823    -29.534087     14.736358
  H      31.558604    -30.312740     16.479385
  H      30.211008    -29.412201     17.117274
  H      33.136136    -28.734626     17.224166
  H      32.848815    -26.308057     17.253379
  H      31.077841    -26.462575     16.882796
  H      30.725276    -27.840750     18.895714
  C      31.481209    -28.336145     12.739902
  H      32.335075    -28.299615     12.060346
  H      30.748287    -29.025875     12.314017
  H      31.028033    -27.341832     12.755274
  C      32.745491    -27.659851     19.721418
  H      32.531955    -26.810841     20.375056
  H      32.710131    -28.567110     20.329247
  H      33.766761    -27.545852     19.352602
24
Coordinates from ORCA-job 11 Relaxed Surface Scan Step 5
  C      31.936704    -28.822929     14.139905
  C      30.735185    -28.774748     15.083206
  C      31.036344    -29.191711     16.525311
  C      32.025430    -28.304055     17.263777
  C      31.751530    -26.844147     17.479785
  C      31.773257    -27.789439     18.645235
  H      32.368535    -29.829133     14.158690
  H      32.717167    -28.150162     14.505319
  H      30.314368    -27.765043     15.079135
  H      29.951321    -29.430752     14.690872
  H      31.401944    -30.222876     16.542500
  H      30.091392    -29.201327     17.076348
  H      33.065711    -28.533999     17.051506
  H      32.572566    -26.144152     17.371777
  H      30.793168    -26.447082     17.164702
  H      30.798389    -28.032556     19.058230
  C      31.588828    -28.450327     12.702045
  H      32.468256    -28.496196     12.056526
  H      30.837708    -29.127054     12.287229
  H      31.187277    -27.435722     12.642567
  C      32.877318    -27.730419     19.674905
  H      32.667593    -26.972252     20.433059
  H      32.993473    -28.689883     20.184595
  H      33.834537    -27.481035     19.212777
24
Coordinates from ORCA-job 11 Relaxed Surface Scan Step 6
  C      31.961964    -28.872907     14.137926
  C      30.737626    -28.701437     15.036811
  C      30.961847    -29.058933     16.508707
  C      31.956749    -28.176220     17.236997
  C      31.581704    -26.783512     17.652365
  C      31.793445    -27.847854     18.687718
  H      32.339413    -29.896296     14.234764
  H      32.767307    -28.218034     14.480656
  H      30.381550    -27.668578     14.967861
  H      29.927567    -29.327801     14.649468
  H      31.283741    -30.102730     16.586305
  H      30.000182    -29.001393     17.026407
  H      32.985676    -28.295677     16.911116
  H      32.325212    -25.999047     17.565243
  H      30.567896    -26.449211     17.461251
  H      30.887856    -28.229462     19.150569
  C      31.673592    -28.578623     12.668975
  H      32.567402    -28.709156     12.055604
  H      30.901273    -29.243838     12.275125
  H      31.325438    -27.551844     12.532429
  C      32.982534    -27.798574     19.618705
  H      32.782653    -27.155108     20.478713
  H      33.229599    -28.793752     19.996127
  H      33.865775    -27.407012     19.110159
24
Coordinates from ORCA-job 11 Relaxed Surface Scan Step 7
  C      31.980294    -28.929921     14.146298
  C      30.740976    -28.631061     14.989850
  C      30.889739    -28.921038     16.486390
  C      31.875575    -28.030049     17.215707
  C      31.427433    -26.740526     17.841694
  C      31.818358    -27.899515     18.706150
  H      32.287779    -29.967345     14.313893
  H      32.816267    -28.308362     14.476937
  H      30.453123    -27.583355     14.852616
  H      29.906948    -29.226786     14.605410
  H      31.186829    -29.967295     16.618456
  H      29.910998    -28.823585     16.963674
  H      32.876559    -28.020011     16.796372
  H      32.094480    -25.886535     17.800216
  H      30.377191    -26.479173     17.774203
  H      30.993033    -28.419463     19.184501
  C      31.756316    -28.704904     12.653992
  H      32.658756    -28.925323     12.080275
  H      30.956339    -29.343778     12.272035
  H      31.477620    -27.668626     12.447809
  C      33.079092    -27.856298     19.538092
  H      32.906307    -27.347615     20.489442
  H      33.441081    -28.863366     19.758723
  H      33.876907    -27.323070     19.017265
24
Coordinates from ORCA-job 11 Relaxed Surface Scan Step 8
  C      31.985706    -29.002212     14.180850
  C      30.738062    -28.565618     14.948905
  C      30.800450    -28.791996     16.462895
  C      31.772240    -27.889107     17.202149
  C      31.283015    -26.734357     18.030474
  C      31.852611    -27.945943     18.697013
  H      32.187317    -30.056584     14.395570
  H      32.859116    -28.449176     14.535595
  H      30.537762    -27.507629     14.748211
  H      29.878827    -29.115677     14.552542
  H      31.071159    -29.837659     16.646128
  H      29.802117    -28.661394     16.887822
  H      32.722349    -27.732120     16.702316
  H      31.870026    -25.822477     18.040707
  H      30.213427    -26.566747     18.089100
  H      31.123802    -28.598134     19.170722
  C      31.857118    -28.809973     12.672768
  H      32.761572    -29.133582     12.153788
  H      31.019917    -29.384887     12.269577
  H      31.688051    -27.760280     12.420659
  C      33.180815    -27.887185     19.415168
  H      33.060954    -27.519818     20.437120
  H      33.645357    -28.874777     19.467575
  H      33.876231    -27.219671     18.902348
24
Coordinates from ORCA-job 11 Relaxed Surface Scan Step 9
  C      31.980774    -29.063790     14.248883
  C      30.723741    -28.505238     14.916036
  C      30.680837    -28.670444     16.438609
  C      31.652678    -27.774051     17.195841
  C      31.166971    -26.770180     18.204316
  C      31.896603    -27.992663     18.658349
  H      32.073389    -30.125886     14.497028
  H      32.871401    -28.580412     14.658872
  H      30.614444    -27.445298     14.662156
  H      29.852222    -29.008965     14.486708
  H      30.890832    -29.718754     16.675455
  H      29.664447    -28.480834     16.791766
  H      32.528100    -27.470729     16.631097
  H      31.678523    -25.815963     18.268843
  H      30.099780    -26.707900     18.385324
  H      31.274824    -28.758462     19.114595
  C      31.978684    -28.897903     12.732302
  H      32.884608    -29.314151     12.287197
  H      31.123539    -29.405194     12.279068
  H      31.924602    -27.843860     12.449292
  C      33.285007    -27.898068     19.247052
  H      33.246422    -27.662295     20.313205
  H      33.827680    -28.839484     19.132450
  H      33.867891    -27.116476     18.755557
24
Coordinates from ORCA-job 11 Relaxed Surface Scan Step 10
  C      31.973610    -29.100708     14.340864
  C      30.706092    -28.446097     14.890313
  C      30.546464    -28.545077     16.410271
  C      31.534342    -27.683788     17.195717
  C      31.085278    -26.844675     18.358906
  C      31.946125    -28.044935     18.590804
  H      31.978438    -30.158121     14.623834
  H      32.856704    -28.660131     14.811460
  H      30.678598    -27.392487     14.591918
  H      29.838605    -28.915741     14.416704
  H      30.650799    -29.594466     16.703078
  H      29.524878    -28.259966     16.672890
  H      32.319391    -27.237568     16.593440
  H      31.529112    -25.863659     18.489293
  H      30.041137    -26.895658     18.647030
  H      31.433296    -28.907109     19.008737
  C      32.103411    -28.982545     12.825469
  H      33.012621    -29.469058     12.466677
  H      31.255678    -29.448553     12.317244
  H      32.141443    -27.936569     12.511443
  C      33.377896    -27.899127     19.050949
  H      33.433699    -27.787426     20.136410
  H      33.973111    -28.772529     18.773725
  H      33.847270    -27.021007     18.602823
24
Coordinates from ORCA-job 11 Relaxed Surface Scan Step 11
  C      31.967704    -29.116764     14.443178
  C      30.695982    -28.384725     14.871179
  C      30.424883    -28.409603     16.377503
  C      31.429849    -27.604307     17.199565
  C      31.030323    -26.952972     18.491428
  C      31.994505    -28.098696     18.495954
  H      31.904709    -30.159562     14.770203
  H      32.832744    -28.691922     14.959791
  H      30.740472    -27.344252     14.531866
  H      29.841644    -28.833485     14.355244
  H      30.400976    -29.448293     16.720699
  H      29.420224    -28.013623     16.546912
  H      32.119947    -27.017001     16.600830
  H      31.410924    -25.960940     18.708538
  H      30.024111    -27.128099     18.856265
  H      31.585365    -29.043938     18.841919
  C      32.211129    -29.072886     12.937846
  H      33.120898    -29.612668     12.667567
  H      31.381917    -29.525465     12.388545
  H      32.318654    -28.044657     12.583756
  C      33.448444    -27.891809     18.850684
  H      33.595707    -27.907619     19.933164
  H      34.076476    -28.673401     18.416378
  H      33.810413    -26.930314     18.480986
24
Coordinates from ORCA-job 11 Relaxed Surface Scan Step 12
  C      31.959166    -29.127267     14.543129
  C      30.699223    -28.322102     14.859353
  C      30.332649    -28.269796     16.344144
  C      31.344479    -27.524529     17.205682
  C      30.994022    -27.088971     18.596682
  C      32.037842    -28.143512     18.379447
  H      31.832356    -30.148985     14.915360
  H      32.809653    -28.711350     15.090200
  H      30.816783    -27.299396     14.485336
  H      29.857236    -28.749868     14.306406
  H      30.188338    -29.285198     16.725514
  H      29.361483    -27.774427     16.431316
  H      31.941093    -26.804877     16.651237
  H      31.316523    -26.107722     18.926824
  H      30.033221    -27.394714     18.996459
  H      31.725250    -29.156787     18.615598
  C      32.290711    -29.169071     13.054669
  H      33.191389    -29.756515     12.865412
  H      31.476538    -29.616364     12.479146
  H      32.461206    -28.164935     12.658563
  C      33.494788    -27.867112     18.668008
  H      33.721376    -28.016198     19.726325
  H      34.144746    -28.529084     18.090684
  H      33.757929    -26.838219     18.414507
24
Coordinates from ORCA-job 11 Relaxed Surface Scan Step 13
  C      31.944342    -29.144449     14.634738
  C      30.718561    -28.258746     14.854659
  C      30.269593    -28.133374     16.312314
  C      31.272821    -27.441236     17.218332
  C      30.972371    -27.245315     18.673458
  C      32.076504    -28.168708     18.251309
  H      31.744164    -30.140778     15.042143
  H      32.789905    -28.750096     15.204289
  H      30.918882    -27.257812     14.457304
  H      29.884780    -28.653981     14.265975
  H      30.028176    -29.121974     16.714979
  H      29.335125    -27.564454     16.329583
  H      31.780007    -26.604461     16.744179
  H      31.241862    -26.301193     19.133590
  H      30.061085    -27.682202     19.067127
  H      31.854751    -29.227770     18.347207
  C      32.341011    -29.269321     13.166977
  H      33.216826    -29.910038     13.046100
  H      31.531461    -29.699223     12.571999
  H      32.582998    -28.293814     12.737889
  C      33.522735    -27.818290     18.512332
  H      33.819065    -28.100432     19.525327
  H      34.187043    -28.333883     17.814579
  H      33.693932    -26.745452     18.403613
24
Coordinates from ORCA-job 11 Relaxed Surface Scan Step 14
  C      31.919909    -29.176514     14.714727
  C      30.757052    -28.195155     14.856836
  C      30.230456    -28.005639     16.281999
  C      31.208486    -27.360428     17.244075
  C      30.964816    -27.417534     18.722807
  C      32.114392    -28.168359     18.123644
  H      31.629014    -30.143105     15.138835
  H      32.770264    -28.829630     15.306252
  H      31.056794    -27.221330     14.454148
  H      29.929400    -28.536328     14.226820
  H      29.909568    -28.970685     16.686794
  H      29.330578    -27.384782     16.234682
  H      31.627416    -26.425171     16.880556
  H      31.182948    -26.536836     19.316573
  H      30.108584    -27.982101     19.075056
  H      31.982136    -29.244546     18.061571
  C      32.362559    -29.373716     13.268013
  H      33.192700    -30.079759     13.200324
  H      31.547180    -29.761067     12.652146
  H      32.692569    -28.431644     12.823149
  C      33.538918    -27.739727     18.387913
  H      33.902492    -28.145434     19.334921
  H      34.209937    -28.085353     17.597774
  H      33.619833    -26.652158     18.440384
24
Coordinates from ORCA-job 11 Relaxed Surface Scan Step 15
  C      31.890684    -29.220166     14.777294
  C      30.820628    -28.132539     14.863370
  C      30.213058    -27.887135     16.249436
  C      31.148340    -27.298305     17.288188
  C      30.971034    -27.604381     18.747849
  C      32.155092    -28.143714     18.014608
  H      31.500786    -30.147376     15.209854
  H      32.755582    -28.941386     15.381643
  H      31.234554    -27.192752     14.480735
  H      30.004779    -28.395069     14.182092
  H      29.807030    -28.830099     16.629881
  H      29.355197    -27.217599     16.137739
  H      31.476934    -26.287059     17.061791
  H      31.131023    -26.805211     19.463233
  H      30.182188    -28.292151     19.031114
  H      32.114674    -29.206313     17.797872
  C      32.348716    -29.486674     13.346262
  H      33.114951    -30.263893     13.314150
  H      31.517678    -29.814358     12.716916
  H      32.771125    -28.586905     12.892092
  C      33.546155    -27.629423     18.303874
  H      33.980470    -28.134467     19.169864
  H      34.213629    -27.791494     17.453991
  H      33.533692    -26.558532     18.516151
24
Coordinates from ORCA-job 11 Relaxed Surface Scan Step 16
  C      31.844575    -29.290837     14.801956
  C      30.921017    -28.074201     14.868913
  C      30.235052    -27.782406     16.211235
  C      31.105546    -27.266081     17.346987
  C      30.994125    -27.811118     18.744003
  C      32.218498    -28.086526     17.942706
  H      31.337922    -30.158595     15.237002
  H      32.737312    -29.121489     15.404571
  H      31.475848    -27.187156     14.542721
  H      30.128052    -28.212230     14.126595
  H      29.728973    -28.696311     16.539606
  H      29.438099    -27.054316     16.038480
  H      31.322637    -26.203124     17.284405
  H      31.063329    -27.114533     19.572505
  H      30.298562    -28.624798     18.916103
  H      32.299257    -29.104605     17.581127
  C      32.271888    -29.622135     13.374564
  H      32.942566    -30.483464     13.352434
  H      31.410127    -29.856392     12.744958
  H      32.797611    -28.781802     12.914402
  C      33.544737    -27.457154     18.300806
  H      34.051746    -28.025275     19.084351
  H      34.209811    -27.415849     17.434733
  H      33.410709    -26.436602     18.664836
24
Coordinates from ORCA-job 11 Relaxed Surface Scan Step 17
  C      31.460590    -29.519688     14.707691
  C      31.049132    -28.062337     14.925200
  C      30.267437    -27.794480     16.225774
  C      31.080644    -27.295862     17.418755
  C      31.155522    -28.047756     18.716886
  C      32.371935    -27.925490     17.858997
  H      30.559373    -30.140605     14.687496
  H      32.051080    -29.878683     15.553319
  H      31.934664    -27.420421     14.888995
  H      30.431553    -27.762242     14.073285
  H      29.729143    -28.704937     16.504034
  H      29.491439    -27.051932     16.029446
  H      31.069820    -26.214812     17.523870
  H      31.117727    -27.486928     19.644489
  H      30.662447    -29.012129     18.769223
  H      32.662159    -28.832151     17.341432
  C      32.248629    -29.734581     13.419552
  H      32.508329    -30.786484     13.284698
  H      31.672371    -29.420881     12.545656
  H      33.178948    -29.161375     13.423949
  C      33.542303    -27.070597     18.287544
  H      34.205018    -27.619252     18.961088
  H      34.133063    -26.748844     17.426439
  H      33.204672    -26.174532     18.812181
24
Coordinates from ORCA-job 11 Relaxed Surface Scan Step 18
  C      31.386701    -29.534191     14.751258
  C      31.070238    -28.045880     14.913993
  C      30.279146    -27.688130     16.184078
  C      31.084653    -27.308138     17.431144
  C      31.254575    -28.233918     18.601140
  C      32.440571    -27.853153     17.774216
  H      30.444742    -30.090070     14.710007
  H      31.914333    -29.911037     15.630666
  H      31.995240    -27.462682     14.880159
  H      30.489398    -27.733294     14.041053
  H      29.599217    -28.511682     16.419399
  H      29.631868    -26.839232     15.956940
  H      30.961143    -26.266066     17.709505
  H      31.168966    -27.826320     19.602530
  H      30.867910    -29.242519     18.503538
  H      32.822686    -28.631930     17.125227
  C      32.207677    -29.841437     13.503089
  H      32.393068    -30.912848     13.404099
  H      31.691972    -29.509381     12.598686
  H      33.177360    -29.338506     13.532688
  C      33.516255    -26.948388     18.329995
  H      34.243478    -27.515973     18.915458
  H      34.056854    -26.438577     17.528879
  H      33.089947    -26.183646     18.982255
24
Coordinates from ORCA-job 11 Relaxed Surface Scan Step 19
  C      31.357196    -29.540610     14.813877
  C      31.084985    -28.036848     14.895902
  C      30.307307    -27.578135     16.137625
  C      31.094883    -27.322175     17.427298
  C      31.348853    -28.386550     18.454612
  C      32.495661    -27.776468     17.709169
  H      30.399965    -30.071258     14.823295
  H      31.894470    -29.882526     15.701656
  H      32.025264    -27.482040     14.827406
  H      30.507248    -27.755326     14.010319
  H      29.497109    -28.285673     16.336205
  H      29.814108    -26.637921     15.882963
  H      30.864690    -26.353849     17.860756
  H      31.220734    -28.136476     19.502066
  H      31.065639    -29.404168     18.208654
  H      32.954355    -28.412071     16.961143
  C      32.142633    -29.940712     13.568891
  H      32.298380    -31.020591     13.528151
  H      31.616131    -29.647073     12.657476
  H      33.125401    -29.463243     13.549702
  C      33.476376    -26.861746     18.406484
  H      34.254639    -27.435524     18.915214
  H      33.965673    -26.191449     17.695711
  H      32.976298    -26.244568     19.155423
24
Coordinates from ORCA-job 11 Relaxed Surface Scan Step 20
  C      31.358267    -29.554239     14.865137
  C      31.127027    -28.041803     14.881532
  C      30.365635    -27.485421     16.091089
  C      31.101466    -27.340291     17.423503
  C      31.440473    -28.494016     18.321070
  C      32.534595    -27.690428     17.684621
  H      30.395072    -30.061835     14.977635
  H      31.960673    -29.860397     15.722927
  H      32.082617    -27.519136     14.779740
  H      30.551567    -27.783888     13.987163
  H      29.455266    -28.072575     16.247050
  H      30.023763    -26.485299     15.813887
  H      30.764847    -26.463974     17.969521
  H      31.271139    -28.378676     19.386063
  H      31.264411    -29.499621     17.957794
  H      33.060010    -28.185342     16.875817
  C      32.036572    -30.037543     13.586655
  H      32.177824    -31.120115     13.597893
  H      31.441678    -29.789825     12.704203
  H      33.019531    -29.576780     13.461214
  C      33.416386    -26.783370     18.511823
  H      34.238668    -27.342002     18.965113
  H      33.849404    -25.988165     17.900264
  H      32.851108    -26.312260     19.318284
24
Coordinates from ORCA-job 11 Relaxed Surface Scan Step 21
  C      31.351328    -29.583929     14.881596
  C      31.196563    -28.061915     14.868694
  C      30.454905    -27.422111     16.048877
  C      31.112496    -27.372205     17.424041
  C      31.551358    -28.565302     18.221406
  C      32.568219    -27.594899     17.699502
  H      30.380619    -30.043897     15.091727
  H      32.015779    -29.894047     15.689838
  H      32.179629    -27.595389     14.755355
  H      30.639820    -27.791557     13.966131
  H      29.473050    -27.896390     16.151114
  H      30.250695    -26.386272     15.764427
  H      30.666822    -26.594829     18.038361
  H      31.341818    -28.558744     19.285605
  H      31.496264    -29.549986     17.776671
  H      33.156571    -27.956145     16.862700
  C      31.895068    -30.131109     13.564723
  H      32.004009    -31.216824     13.602015
  H      31.230316    -29.892739     12.730959
  H      32.876202    -29.707887     13.335413
  C      33.336426    -26.689497     18.634522
  H      34.202567    -27.204139     19.057211
  H      33.697756    -25.799155     18.114338
  H      32.709720    -26.358032     19.464773
24
Coordinates from ORCA-job 11 Relaxed Surface Scan Step 22
  C      31.063488    -29.648435     14.750890
  C      31.277976    -28.139818     14.894801
  C      30.548746    -27.467823     16.067659
  C      31.193545    -27.452505     17.447844
  C      31.860503    -28.610804     18.129442
  C      32.662702    -27.406875     17.729393
  H      29.989705    -29.847013     14.678238
  H      31.403670    -30.172577     15.645306
  H      32.348194    -27.921083     14.935506
  H      30.922331    -27.667896     13.974338
  H      29.548855    -27.903282     16.160848
  H      30.386986    -26.420415     15.796926
  H      30.608094    -26.842996     18.131295
  H      31.654141    -28.762584     19.183408
  H      32.021055    -29.530764     17.583809
  H      33.315824    -27.560300     16.876780
  C      31.767398    -30.235336     13.531141
  H      31.584179    -31.308324     13.446402
  H      31.419069    -29.765769     12.607901
  H      32.848764    -30.087882     13.588040
  C      33.229647    -26.463007     18.764680
  H      34.182704    -26.830575     19.152368
  H      33.401710    -25.470047     18.342192
  H      32.548713    -26.350888     19.610789
24
Coordinates from ORCA-job 11 Relaxed Surface Scan Step 23
  C      30.911790    -29.632508     14.709222
  C      31.326665    -28.172090     14.902729
  C      30.608684    -27.452076     16.054541
  C      31.241803    -27.501284     17.438393
  C      32.088306    -28.621522     17.968056
  C      32.693107    -27.271231     17.718685
  H      29.840559    -29.666149     14.487753
  H      31.039444    -30.187917     15.641022
  H      32.411071    -28.111624     15.029281
  H      31.113966    -27.635660     13.973884
  H      29.588952    -27.841151     16.130518
  H      30.500444    -26.395146     15.794239
  H      30.583873    -27.064979     18.185181
  H      31.933694    -28.934098     18.994971
  H      32.369838    -29.429688     17.305509
  H      33.341517    -27.214029     16.849887
  C      31.678856    -30.332950     13.592356
  H      31.340820    -31.363301     13.465187
  H      31.544365    -29.819910     12.636850
  H      32.750841    -30.360094     13.803269
  C      33.133596    -26.387586     18.863001
  H      34.139054    -26.650991     19.199736
  H      33.145358    -25.335522     18.567954
  H      32.461397    -26.485496     19.717774
24
Coordinates from ORCA-job 11 Relaxed Surface Scan Step 24
  C      30.871029    -29.627809     14.737186
  C      31.353687    -28.182007     14.869569
  C      30.689211    -27.394158     16.005987
  C      31.274283    -27.539326     17.406805
  C      32.231548    -28.612418     17.842534
  C      32.694162    -27.192887     17.731891
  H      29.797309    -29.619896     14.525332
  H      30.982019    -30.150304     15.689890
  H      32.442539    -28.163171     14.977531
  H      31.147652    -27.667112     13.926818
  H      29.632348    -27.674019     16.043575
  H      30.702058    -26.329341     15.756196
  H      30.565803    -27.243224     18.175072
  H      32.101717    -29.034039     18.833347
  H      32.597793    -29.323614     17.113890
  H      33.330324    -26.985189     16.875766
  C      31.594257    -30.406708     13.643191
  H      31.206357    -31.423790     13.558585
  H      31.476397    -29.925165     12.669267
  H      32.665520    -30.477307     13.847743
  C      33.040405    -26.382290     18.959426
  H      34.066963    -26.572614     19.281587
  H      32.944594    -25.311133     18.765734
  H      32.380024    -26.629479     19.793076
