21
Coordinates from ORCA-job 1 Relaxed Surface Scan Step 1
  C      -4.482335      0.407352      0.186088
  H      -3.770289      1.136395      0.581015
  H      -4.691187      0.679213     -0.851438
  H      -5.411407      0.514026      0.749386
  C      -3.934022     -1.012375      0.287096
  H      -3.767946     -1.267219      1.337794
  H      -4.686309     -1.718155     -0.078611
  C      -2.635024     -1.219453     -0.491119
  H      -2.804716     -0.983210     -1.547170
  H      -1.881808     -0.507557     -0.139031
  C      -2.085202     -2.625072     -0.374587
  C      -0.643158     -2.923516     -0.635925
  C      -1.181025     -3.007419      0.761046
  H      -2.781727     -3.396823     -0.692518
  H      -0.021423     -2.056251     -0.839888
  H      -1.297330     -3.989390      1.206030
  H      -0.897158     -2.236463      1.468887
  C      -0.222374     -4.167857     -1.382673
  H      -0.262889     -4.011964     -2.463356
  H       0.799451     -4.455677     -1.124659
  H      -0.874490     -5.010261     -1.143590
21
Coordinates from ORCA-job 1 Relaxed Surface Scan Step 2
  C      -4.475585      0.411953      0.167972
  H      -3.743787      1.206385      0.334929
  H      -4.856527      0.523613     -0.850138
  H      -5.308479      0.580601      0.853425
  C      -3.854781     -0.965358      0.379946
  H      -3.523039     -1.055385      1.418484
  H      -4.618707     -1.735380      0.234250
  C      -2.670200     -1.242618     -0.545087
  H      -2.973036     -1.067654     -1.582994
  H      -1.875827     -0.520247     -0.332988
  C      -2.116056     -2.648998     -0.441157
  C      -0.650850     -2.922994     -0.589779
  C      -1.312227     -3.093683      0.744240
  H      -2.773998     -3.408457     -0.855895
  H      -0.025535     -2.040114     -0.685144
  H      -1.461758     -4.100959      1.116623
  H      -1.095176     -2.368092      1.520564
  C      -0.147707     -4.117195     -1.366861
  H      -0.091563     -3.897636     -2.435719
  H       0.850105     -4.412000     -1.033496
  H      -0.807637     -4.977460     -1.238397
21
Coordinates from ORCA-job 1 Relaxed Surface Scan Step 3
  C      -4.467797      0.411938      0.166867
  H      -3.755459      1.238322      0.100700
  H      -5.016335      0.373761     -0.777473
  H      -5.182667      0.654431      0.955681
  C      -3.758164     -0.908641      0.450039
  H      -3.265517     -0.844620      1.424760
  H      -4.497168     -1.711830      0.527506
  C      -2.715312     -1.268080     -0.609015
  H      -3.163801     -1.164173     -1.602020
  H      -1.904989     -0.534379     -0.564320
  C      -2.145004     -2.673713     -0.508097
  C      -0.666975     -2.925242     -0.537201
  C      -1.443642     -3.182171      0.716772
  H      -2.748791     -3.421865     -1.014553
  H      -0.052194     -2.030097     -0.522245
  H      -1.617492     -4.211324      1.010427
  H      -1.301883     -2.507835      1.553886
  C      -0.073436     -4.063494     -1.334199
  H       0.077720     -3.778485     -2.378107
  H       0.894138     -4.366644     -0.927146
  H      -0.727599     -4.937538     -1.319484
21
Coordinates from ORCA-job 1 Relaxed Surface Scan Step 4
  C      -4.417613      0.423736      0.203407
  H      -3.739014      1.237490     -0.064660
  H      -5.122020      0.297092     -0.622307
  H      -4.986899      0.743130      1.078570
  C      -3.652093     -0.866099      0.482614
  H      -3.003180     -0.709918      1.348857
  H      -4.354813     -1.656831      0.760881
  C      -2.806135     -1.324994     -0.706314
  H      -3.432974     -1.318121     -1.602206
  H      -2.024838     -0.580659     -0.885577
  C      -2.184291     -2.715433     -0.591939
  C      -0.702206     -2.916503     -0.482025
  C      -1.585561     -3.258946      0.674689
  H      -2.697366     -3.466848     -1.184664
  H      -0.129298     -2.000847     -0.365028
  H      -1.751487     -4.306290      0.901200
  H      -1.549760     -2.624774      1.552324
  C       0.012198     -3.991055     -1.267965
  H       0.253332     -3.648652     -2.277122
  H       0.946529     -4.280009     -0.780749
  H      -0.604883     -4.887147     -1.359209
21
Coordinates from ORCA-job 1 Relaxed Surface Scan Step 5
  C      -4.304508      0.452448      0.244395
  H      -3.654063      1.219180     -0.183681
  H      -5.139016      0.305677     -0.445584
  H      -4.711700      0.847377      1.177221
  C      -3.545416     -0.849462      0.481081
  H      -2.755322     -0.670939      1.215100
  H      -4.215552     -1.587102      0.931346
  C      -2.947603     -1.428231     -0.801881
  H      -3.754432     -1.540751     -1.530667
  H      -2.262486     -0.693729     -1.236293
  C      -2.237314     -2.778123     -0.674723
  C      -0.764146     -2.887988     -0.424398
  C      -1.728022     -3.339939      0.625029
  H      -2.626506     -3.532278     -1.351519
  H      -0.268987     -1.943685     -0.212219
  H      -1.841385     -4.405585      0.791495
  H      -1.821732     -2.748376      1.526351
  C       0.093939     -3.874118     -1.181704
  H       0.404572     -3.467885     -2.147270
  H       0.996025     -4.125585     -0.618854
  H      -0.448716     -4.802583     -1.370448
21
Coordinates from ORCA-job 1 Relaxed Surface Scan Step 6
  C      -4.169804      0.482967      0.249025
  H      -3.550648      1.186432     -0.312784
  H      -5.097914      0.341285     -0.310072
  H      -4.425190      0.953081      1.200677
  C      -3.446518     -0.842640      0.465077
  H      -2.545903     -0.666976      1.059842
  H      -4.075684     -1.504933      1.065594
  C      -3.092620     -1.544925     -0.846078
  H      -4.024528     -1.765940     -1.373973
  H      -2.548580     -0.848452     -1.492530
  C      -2.289942     -2.838627     -0.731213
  C      -0.839068     -2.855849     -0.364347
  C      -1.847375     -3.441844      0.574032
  H      -2.558819     -3.569488     -1.487773
  H      -0.432085     -1.896259     -0.054816
  H      -1.888463     -4.521304      0.670850
  H      -2.058806     -2.916284      1.495645
  C       0.147249     -3.729147     -1.103938
  H       0.500398     -3.241480     -2.015759
  H       1.019428     -3.951617     -0.484633
  H      -0.307495     -4.679677     -1.390049
21
Coordinates from ORCA-job 1 Relaxed Surface Scan Step 7
  C      -4.109093      0.497243      0.230632
  H      -3.579134      1.157186     -0.460245
  H      -5.101868      0.311654     -0.186473
  H      -4.240529      1.037420      1.170197
  C      -3.347562     -0.807249      0.446191
  H      -2.374302     -0.583491      0.891749
  H      -3.882177     -1.416542      1.179088
  C      -3.173531     -1.608600     -0.844030
  H      -4.166351     -1.897327     -1.202559
  H      -2.757829     -0.956066     -1.619361
  C      -2.313229     -2.862161     -0.764502
  C      -0.888815     -2.851971     -0.305795
  C      -1.931513     -3.544551      0.518591
  H      -2.501811     -3.541831     -1.590517
  H      -0.534397     -1.909448      0.102009
  H      -1.932569     -4.628936      0.536121
  H      -2.221164     -3.095158      1.459612
  C       0.173209     -3.634496     -1.042772
  H       0.564113     -3.067585     -1.891207
  H       1.012970     -3.874968     -0.386490
  H      -0.226786     -4.574800     -1.427460
21
Coordinates from ORCA-job 1 Relaxed Surface Scan Step 8
  C      -4.118145      0.494725      0.223924
  H      -3.746891      1.125656     -0.587155
  H      -5.147080      0.217708     -0.017797
  H      -4.143103      1.101700      1.131001
  C      -3.241973     -0.740770      0.411224
  H      -2.232699     -0.421615      0.683906
  H      -3.620438     -1.318739      1.257823
  C      -3.199152     -1.622874     -0.835923
  H      -4.220012     -1.947239     -1.062994
  H      -2.884811     -1.012749     -1.689647
  C      -2.313615     -2.858244     -0.790198
  C      -0.916476     -2.872850     -0.252516
  C      -1.999063     -3.628829      0.459093
  H      -2.450054     -3.480820     -1.670103
  H      -0.589056     -1.965398      0.244843
  H      -1.991652     -4.711689      0.399363
  H      -2.343803     -3.249054      1.412629
  C       0.189940     -3.598016     -0.983254
  H       0.625722     -2.969567     -1.763775
  H       0.992056     -3.885088     -0.299208
  H      -0.182064     -4.507927     -1.458459
21
Coordinates from ORCA-job 1 Relaxed Surface Scan Step 9
  C      -4.128582      0.481418      0.239753
  H      -3.950137      1.072910     -0.661484
  H      -5.157985      0.117699      0.197539
  H      -4.049187      1.152359      1.097305
  C      -3.136721     -0.673437      0.349592
  H      -2.126023     -0.265409      0.428713
  H      -3.325128     -1.214755      1.280312
  C      -3.217665     -1.629433     -0.839788
  H      -4.251068     -1.978453     -0.938525
  H      -3.005637     -1.063965     -1.753321
  C      -2.312303     -2.851110     -0.821865
  C      -0.947894     -2.894502     -0.205160
  C      -2.066202     -3.694365      0.394407
  H      -2.397433     -3.423217     -1.741647
  H      -0.654696     -2.020312      0.366316
  H      -2.050566     -4.771710      0.270709
  H      -2.469730     -3.372435      1.346759
  C       0.203383     -3.572793     -0.911230
  H       0.682673     -2.897342     -1.624019
  H       0.963973     -3.900788     -0.198761
  H      -0.135441     -4.452041     -1.462825
21
Coordinates from ORCA-job 1 Relaxed Surface Scan Step 10
  C      -4.110831      0.473230      0.261334
  H      -4.116842      1.009994     -0.690457
  H      -5.109956      0.057655      0.412177
  H      -3.932871      1.204194      1.052474
  C      -3.047547     -0.621337      0.272182
  H      -2.061831     -0.161364      0.164375
  H      -3.054078     -1.113705      1.248713
  C      -3.249909     -1.648194     -0.841268
  H      -4.280434     -2.016826     -0.800501
  H      -3.154420     -1.132151     -1.801778
  C      -2.316979     -2.850855     -0.854528
  C      -0.989027     -2.911574     -0.160516
  C      -2.127345     -3.757003      0.325145
  H      -2.343515     -3.373773     -1.806295
  H      -0.744927     -2.067082      0.474316
  H      -2.089097     -4.825762      0.145120
  H      -2.595024     -3.490658      1.266277
  C       0.212893     -3.534494     -0.832341
  H       0.723364     -2.813895     -1.475837
  H       0.934291     -3.892832     -0.094190
  H      -0.078284     -4.385244     -1.451626
21
Coordinates from ORCA-job 1 Relaxed Surface Scan Step 11
  C      -4.067183      0.495010      0.252088
  H      -4.191510      0.967491     -0.725335
  H      -5.035313      0.081046      0.543880
  H      -3.812212      1.278412      0.968416
  C      -2.991412     -0.586164      0.210834
  H      -2.030699     -0.128673     -0.041265
  H      -2.878396     -1.013736      1.211391
  C      -3.299817     -1.685527     -0.804379
  H      -4.303932     -2.076692     -0.608973
  H      -3.345467     -1.224444     -1.795278
  C      -2.325054     -2.856985     -0.870674
  C      -1.029945     -2.935000     -0.114001
  C      -2.165869     -3.839232      0.250515
  H      -2.290312     -3.311658     -1.856135
  H      -0.839662     -2.131270      0.587725
  H      -2.089689     -4.892147      0.002374
  H      -2.691827     -3.646291      1.179620
  C       0.219528     -3.479593     -0.767156
  H       0.740673     -2.703036     -1.332149
  H       0.913743     -3.872421     -0.020490
  H      -0.018012     -4.290764     -1.458229
21
Coordinates from ORCA-job 1 Relaxed Surface Scan Step 12
  C      -4.023444      0.533474      0.216868
  H      -4.228521      0.939480     -0.776684
  H      -4.963733      0.143719      0.614284
  H      -3.712410      1.362473      0.855551
  C      -2.952811     -0.551985      0.161244
  H      -2.017209     -0.121186     -0.206914
  H      -2.751986     -0.903953      1.177020
  C      -3.347336     -1.724745     -0.735610
  H      -4.300400     -2.133312     -0.384171
  H      -3.544277     -1.329807     -1.735879
  C      -2.332619     -2.860825     -0.868939
  C      -1.066429     -2.972096     -0.066963
  C      -2.188559     -3.931818      0.170745
  H      -2.240655     -3.226431     -1.886898
  H      -0.926126     -2.226764      0.707134
  H      -2.072598     -4.958473     -0.158805
  H      -2.760284     -3.827881      1.087164
  C       0.222180     -3.426167     -0.713122
  H       0.742058     -2.590584     -1.187857
  H       0.898208     -3.864661      0.024780
  H       0.034582     -4.180136     -1.480169
21
Coordinates from ORCA-job 1 Relaxed Surface Scan Step 13
  C      -3.990961      0.571405      0.173068
  H      -4.278563      0.906082     -0.826595
  H      -4.893168      0.207740      0.671050
  H      -3.637266      1.444166      0.725456
  C      -2.919193     -0.512309      0.107657
  H      -2.020726     -0.109257     -0.368477
  H      -2.627955     -0.783477      1.125777
  C      -3.380470     -1.756475     -0.652410
  H      -4.258861     -2.171882     -0.149292
  H      -3.731472     -1.440811     -1.638273
  C      -2.337078     -2.857546     -0.858124
  C      -1.099980     -3.019243     -0.021913
  C      -2.206311     -4.019018      0.084132
  H      -2.193227     -3.120091     -1.901480
  H      -1.004959     -2.346328      0.822741
  H      -2.053609     -5.008926     -0.331718
  H      -2.816414     -4.009169      0.981128
  C       0.221125     -3.384711     -0.658314
  H       0.737239     -2.498036     -1.034178
  H       0.880919     -3.876115      0.060680
  H       0.078561     -4.067679     -1.498135
21
Coordinates from ORCA-job 1 Relaxed Surface Scan Step 14
  C      -3.973081      0.600199      0.135694
  H      -4.368134      0.857991     -0.849978
  H      -4.811515      0.257334      0.747132
  H      -3.587147      1.516033      0.587661
  C      -2.887615     -0.467110      0.036043
  H      -2.051698     -0.083815     -0.555783
  H      -2.483888     -0.656495      1.033760
  C      -3.394974     -1.777506     -0.569860
  H      -4.175621     -2.186100      0.077293
  H      -3.895905     -1.552708     -1.515277
  C      -2.336131     -2.845705     -0.845318
  C      -1.132408     -3.071230      0.019897
  C      -2.225501     -4.090690     -0.009377
  H      -2.144679     -3.000253     -1.902808
  H      -1.081396     -2.478871      0.927316
  H      -2.039738     -5.035659     -0.508099
  H      -2.871692     -4.170925      0.857786
  C       0.218214     -3.359701     -0.593469
  H       0.733957     -2.435544     -0.865036
  H       0.857466     -3.907436      0.102963
  H       0.119117     -3.963487     -1.497759
21
Coordinates from ORCA-job 1 Relaxed Surface Scan Step 15
  C      -3.965452      0.618027      0.114761
  H      -4.498821      0.793535     -0.822677
  H      -4.700448      0.294685      0.856173
  H      -3.558479      1.574656      0.448246
  C      -2.862667     -0.421348     -0.060978
  H      -2.128001     -0.054152     -0.782817
  H      -2.319856     -0.529244      0.881481
  C      -3.393203     -1.789268     -0.497400
  H      -4.053773     -2.176361      0.281973
  H      -4.032487     -1.661494     -1.375801
  C      -2.328973     -2.826564     -0.835773
  C      -1.165680     -3.122783      0.058223
  C      -2.247125     -4.142454     -0.109563
  H      -2.092402     -2.876725     -1.894792
  H      -1.163615     -2.611540      1.016085
  H      -2.028629     -5.037242     -0.682031
  H      -2.931002     -4.304565      0.715791
  C       0.214830     -3.349934     -0.512740
  H       0.734189     -2.402956     -0.677840
  H       0.825791     -3.953520      0.162537
  H       0.163436     -3.872431     -1.470077
21
Coordinates from ORCA-job 1 Relaxed Surface Scan Step 16
  C      -3.963066      0.629291      0.109622
  H      -4.651229      0.715707     -0.734816
  H      -4.549479      0.334678      0.983579
  H      -3.553641      1.622233      0.305762
  C      -2.855405     -0.379322     -0.178796
  H      -2.267031     -0.037514     -1.035022
  H      -2.160509     -0.403319      0.665067
  C      -3.379982     -1.793804     -0.433642
  H      -3.902147     -2.145130      0.459794
  H      -4.138577     -1.765096     -1.222166
  C      -2.313431     -2.799805     -0.827482
  C      -1.196891     -3.173444      0.094595
  C      -2.266748     -4.173750     -0.216572
  H      -2.032409     -2.752081     -1.876271
  H      -1.249841     -2.742836      1.090776
  H      -2.015416     -5.014155     -0.854148
  H      -2.990242     -4.409434      0.555403
  C       0.212918     -3.355171     -0.417681
  H       0.738387     -2.398888     -0.474055
  H       0.788016     -4.015097      0.235977
  H       0.214357     -3.794740     -1.417145
21
Coordinates from ORCA-job 1 Relaxed Surface Scan Step 17
  C      -3.972124      0.642300      0.106664
  H      -4.801014      0.627138     -0.605262
  H      -4.378657      0.397396      1.091106
  H      -3.592552      1.665024      0.150872
  C      -2.875937     -0.338100     -0.298582
  H      -2.466763     -0.043564     -1.269757
  H      -2.045157     -0.268264      0.409608
  C      -3.354161     -1.788506     -0.365613
  H      -3.731758     -2.089432      0.616157
  H      -4.206597     -1.860583     -1.049256
  C      -2.282887     -2.762097     -0.809537
  C      -1.216636     -3.230487      0.130791
  C      -2.278118     -4.183687     -0.328904
  H      -1.958389     -2.619703     -1.837279
  H      -1.321377     -2.886838      1.156422
  H      -1.998175     -4.962786     -1.029197
  H      -3.041496     -4.484862      0.379517
  C       0.217029     -3.385556     -0.320165
  H       0.754007     -2.435803     -0.261811
  H       0.749601     -4.109687      0.300762
  H       0.268791     -3.733580     -1.353757
21
Coordinates from ORCA-job 1 Relaxed Surface Scan Step 18
  C      -3.996096      0.658949      0.099460
  H      -4.931928      0.534704     -0.450953
  H      -4.210255      0.487060      1.157206
  H      -3.683476      1.699274     -0.009830
  C      -2.923260     -0.297885     -0.410327
  H      -2.706793     -0.073817     -1.459935
  H      -1.990905     -0.126767      0.136038
  C      -3.314562     -1.769880     -0.291743
  H      -3.556829     -2.001046      0.750927
  H      -4.231803     -1.944424     -0.864259
  C      -2.234964     -2.714531     -0.776194
  C      -1.222975     -3.297093      0.164669
  C      -2.278979     -4.172802     -0.440242
  H      -1.863653     -2.482826     -1.771279
  H      -1.373522     -3.050279      1.211933
  H      -1.978545     -4.884636     -1.201025
  H      -3.081562     -4.526443      0.197544
  C       0.228067     -3.443324     -0.229839
  H       0.781133     -2.518101     -0.051328
  H       0.713370     -4.238415      0.341088
  H       0.325168     -3.689395     -1.289133
21
Coordinates from ORCA-job 1 Relaxed Surface Scan Step 19
  C      -4.028861      0.676448      0.083747
  H      -5.027725      0.451021     -0.297925
  H      -4.066029      0.596654      1.172955
  H      -3.806581      1.716112     -0.164478
  C      -2.986196     -0.268053     -0.504831
  H      -2.947317     -0.132857     -1.590988
  H      -1.994859     -0.001490     -0.126013
  C      -3.264016     -1.741094     -0.211110
  H      -3.376853     -1.883183      0.869025
  H      -4.224939     -2.013835     -0.659757
  C      -2.178323     -2.664205     -0.733459
  C      -1.224313     -3.367134      0.189109
  C      -2.271054     -4.145807     -0.547701
  H      -1.756695     -2.350808     -1.684892
  H      -1.418571     -3.219652      1.247564
  H      -1.953206     -4.786792     -1.362570
  H      -3.111171     -4.537716      0.015424
  C       0.239669     -3.515329     -0.153110
  H       0.806481     -2.629375      0.142845
  H       0.677466     -4.377580      0.355419
  H       0.380723     -3.656999     -1.226474
21
Coordinates from ORCA-job 1 Relaxed Surface Scan Step 20
  C      -4.075929      0.688979      0.052816
  H      -5.095786      0.374665     -0.182289
  H      -3.980243      0.712086      1.141087
  H      -3.951945      1.710368     -0.312208
  C      -3.050505     -0.250096     -0.573005
  H      -3.146182     -0.215142     -1.663325
  H      -2.041092      0.103483     -0.341478
  C      -3.197321     -1.701172     -0.118156
  H      -3.175896     -1.738507      0.975732
  H      -4.185893     -2.062439     -0.418693
  C      -2.117406     -2.613037     -0.685363
  C      -1.225063     -3.435209      0.200352
  C      -2.261014     -4.103275     -0.648484
  H      -1.643752     -2.228159     -1.584256
  H      -1.459435     -3.382378      1.259642
  H      -1.929142     -4.673603     -1.509070
  H      -3.136501     -4.516539     -0.159248
  C       0.247241     -3.598035     -0.096840
  H       0.826575     -2.763705      0.305687
  H       0.637791     -4.519081      0.342422
  H       0.429129     -3.640882     -1.172546
21
Coordinates from ORCA-job 1 Relaxed Surface Scan Step 21
  C      -4.141612      0.686863      0.009269
  H      -5.153202      0.290853     -0.108712
  H      -3.960397      0.816138      1.079073
  H      -4.117335      1.675814     -0.452528
  C      -3.107898     -0.241424     -0.618826
  H      -3.293635     -0.316126     -1.694909
  H      -2.111092      0.197477     -0.511686
  C      -3.107202     -1.645819     -0.015821
  H      -2.948362     -1.566881      1.063974
  H      -4.101681     -2.083297     -0.145476
  C      -2.049380     -2.557365     -0.632504
  C      -1.227157     -3.495501      0.200785
  C      -2.256184     -4.039897     -0.738457
  H      -1.521105     -2.114975     -1.472282
  H      -1.498510     -3.528568      1.252323
  H      -1.916204     -4.545178     -1.635838
  H      -3.166141     -4.454528     -0.318606
  C       0.247773     -3.693220     -0.060244
  H       0.843709     -2.922826      0.434901
  H       0.585780     -4.665104      0.307141
  H       0.467466     -3.648112     -1.128799
21
Coordinates from ORCA-job 1 Relaxed Surface Scan Step 22
  C      -4.220167      0.661685     -0.037125
  H      -5.203264      0.184875     -0.049137
  H      -3.982463      0.901926      1.002056
  H      -4.302007      1.602975     -0.584072
  C      -3.158775     -0.243838     -0.651973
  H      -3.404976     -0.436887     -1.700352
  H      -2.197279      0.279039     -0.661744
  C      -2.992755     -1.573495      0.084095
  H      -2.702870     -1.369081      1.119250
  H      -3.963334     -2.075140      0.139523
  C      -1.969446     -2.492190     -0.576880
  C      -1.233679     -3.541976      0.195910
  C      -2.257099     -3.948088     -0.817024
  H      -1.381630     -2.010500     -1.353145
  H      -1.543309     -3.648783      1.232217
  H      -1.913214     -4.397486     -1.742260
  H      -3.203766     -4.340307     -0.462678
  C       0.236899     -3.800369     -0.035270
  H       0.855049     -3.107397      0.540526
  H       0.509633     -4.816298      0.259962
  H       0.496082     -3.680345     -1.089100
21
Coordinates from ORCA-job 1 Relaxed Surface Scan Step 23
  C      -4.296763      0.613577     -0.071844
  H      -5.234148      0.063090      0.038733
  H      -4.006400      0.973161      0.918418
  H      -4.497259      1.487011     -0.695380
  C      -3.208961     -0.263276     -0.682082
  H      -3.511192     -0.584129     -1.683198
  H      -2.301698      0.332371     -0.824102
  C      -2.863829     -1.488202      0.165752
  H      -2.461686     -1.152659      1.126862
  H      -3.779181     -2.037824      0.404456
  C      -1.876517     -2.417705     -0.523537
  C      -1.247861     -3.570723      0.189258
  C      -2.255091     -3.827061     -0.888721
  H      -1.223946     -1.916692     -1.233461
  H      -1.605156     -3.736310      1.202381
  H      -1.903888     -4.230393     -1.832223
  H      -3.240144     -4.176027     -0.600604
  C       0.210247     -3.913009     -0.010090
  H       0.849484     -3.309831      0.639080
  H       0.402607     -4.964659      0.214755
  H       0.519013     -3.732390     -1.041674
21
Coordinates from ORCA-job 1 Relaxed Surface Scan Step 24
  C      -4.343277      0.568389     -0.074135
  H      -5.222022     -0.017329      0.206570
  H      -3.967438      1.053365      0.830185
  H      -4.673192      1.353116     -0.757697
  C      -3.274440     -0.310163     -0.715240
  H      -3.666096     -0.759882     -1.632197
  H      -2.432487      0.315277     -1.028277
  C      -2.752588     -1.411014      0.208543
  H      -2.271712     -0.951362      1.078319
  H      -3.592902     -1.989629      0.604411
  C      -1.783912     -2.347614     -0.486410
  C      -1.271362     -3.583506      0.178202
  C      -2.230459     -3.699819     -0.967639
  H      -1.064744     -1.840987     -1.124904
  H      -1.694886     -3.791962      1.157107
  H      -1.851563     -4.063763     -1.916327
  H      -3.250297     -4.001341     -0.757110
  C       0.170736     -4.009953      0.031350
  H       0.809520     -3.495697      0.753387
  H       0.282257     -5.084735      0.192242
  H       0.548494     -3.783069     -0.967600
