27
Coordinates from ORCA-job 20 Relaxed Surface Scan Step 1
  C      -1.535356     -0.058684      1.018204
  H      -2.564500      0.065688      0.666828
  H      -1.608053     -0.422813      2.046935
  C      -0.836834     -1.113882      0.173138
  H      -0.790587     -0.802783     -0.938372
  H       0.184958     -1.269361      0.528093
  C      -1.608082     -2.425080     -0.120998
  C      -0.672460     -3.418839     -0.709785
  C      -1.968973     -4.002367     -0.382351
  H      -2.493473     -1.952077     -0.471242
  H       0.122274     -3.605405      0.003794
  H      -0.315726     -3.414469     -1.744941
  H      -2.009202     -4.741801      0.415397
  C      -3.045021     -4.161616     -1.425951
  H      -4.025474     -3.996129     -0.969641
  H      -2.923701     -3.399784     -2.198965
  C      -3.011650     -5.550704     -2.068595
  H      -2.022010     -5.725197     -2.500303
  H      -3.144304     -6.311763     -1.294389
  C      -0.828394      1.293331      0.999975
  H      -0.771694      1.696842     -0.013911
  H      -1.354528      2.023127      1.618522
  H       0.192584      1.212363      1.380576
  C      -4.076331     -5.734669     -3.145389
  H      -4.029130     -6.735413     -3.578773
  H      -5.080461     -5.596822     -2.737349
  H      -3.947561     -5.015096     -3.957384
27
Coordinates from ORCA-job 20 Relaxed Surface Scan Step 2
  C      -1.583646     -0.159161      0.985284
  H      -2.572486      0.003005      0.544405
  H      -1.756728     -0.690223      1.925843
  C      -0.757935     -1.047850      0.063107
  H      -0.629954     -0.560105     -0.959429
  H       0.226472     -1.237754      0.497983
  C      -1.447140     -2.298972     -0.501018
  C      -0.567770     -3.433273     -0.930144
  C      -1.950904     -3.767630     -0.509672
  H      -2.152032     -1.724966     -1.045078
  H       0.211518     -3.620854     -0.200407
  H      -0.252165     -3.609187     -1.957409
  H      -2.054856     -4.346512      0.406465
  C      -3.018534     -4.063473     -1.537741
  H      -3.992883     -3.753998     -1.146128
  H      -2.839258     -3.462179     -2.433091
  C      -3.072847     -5.542877     -1.921106
  H      -2.093669     -5.853866     -2.296366
  H      -3.257818     -6.141582     -1.024327
  C      -0.929728      1.189220      1.271206
  H      -0.778020      1.758429      0.350897
  H      -1.546299      1.794814      1.938325
  H       0.046408      1.063534      1.745965
  C      -4.140440     -5.854094     -2.965267
  H      -4.153533     -6.917474     -3.211927
  H      -5.136754     -5.584903     -2.606208
  H      -3.962690     -5.301476     -3.891043
27
Coordinates from ORCA-job 20 Relaxed Surface Scan Step 3
  C      -1.672226     -0.435893      0.849593
  H      -2.619051     -0.280933      0.323151
  H      -1.870223     -1.202339      1.604806
  C      -0.630693     -0.962581     -0.134548
  H      -0.465065     -0.214129     -0.944771
  H       0.318889     -1.133176      0.380114
  C      -1.075443     -2.155609     -0.975870
  C      -0.373358     -3.475315     -1.155961
  C      -1.807107     -3.451621     -0.726021
  H      -1.411469     -1.613272     -1.824426
  H       0.368849     -3.736365     -0.409441
  H      -0.129423     -3.816381     -2.156723
  H      -1.980264     -3.731642      0.310837
  C      -2.912201     -3.878027     -1.667786
  H      -3.838891     -3.363874     -1.391821
  H      -2.669222     -3.545027     -2.681458
  C      -3.153111     -5.387321     -1.672048
  H      -2.224451     -5.898497     -1.941939
  H      -3.394228     -5.715479     -0.656223
  C      -1.254475      0.859728      1.537740
  H      -1.086106      1.657823      0.810583
  H      -2.021219      1.202870      2.235205
  H      -0.328200      0.727707      2.102322
  C      -4.266769     -5.819646     -2.620512
  H      -4.411336     -6.901459     -2.594220
  H      -5.217981     -5.351794     -2.355079
  H      -4.038917     -5.541149     -3.652386
27
Coordinates from ORCA-job 20 Relaxed Surface Scan Step 4
  C      -1.778239     -0.320076      0.601030
  H      -2.383152      0.164597     -0.171769
  H      -2.438188     -1.040980      1.092101
  C      -0.621949     -1.067532     -0.063467
  H       0.032328     -0.339862     -0.559490
  H      -0.021097     -1.569596      0.700943
  C      -1.067749     -2.053001     -1.121666
  C      -0.343162     -3.342347     -1.381598
  C      -1.733540     -3.359788     -0.819376
  H      -1.439750     -1.530344     -1.994027
  H       0.479825     -3.604393     -0.726420
  H      -0.202384     -3.655435     -2.410328
  H      -1.797839     -3.616859      0.235438
  C      -2.903729     -3.854501     -1.642172
  H      -3.821325     -3.372173     -1.288587
  H      -2.774083     -3.534878     -2.680980
  C      -3.080248     -5.371802     -1.596215
  H      -2.161757     -5.850553     -1.947887
  H      -3.205556     -5.687071     -0.555643
  C      -1.321716      0.723948      1.615103
  H      -0.691698      1.483753      1.146214
  H      -2.173488      1.234193      2.069094
  H      -0.742010      0.266716      2.420821
  C      -4.262827     -5.869703     -2.420993
  H      -4.357734     -6.955694     -2.361525
  H      -5.202270     -5.435417     -2.070282
  H      -4.150356     -5.604608     -3.475199
27
Coordinates from ORCA-job 20 Relaxed Surface Scan Step 5
  C      -1.695174     -0.027197      0.448683
  H      -1.808233      0.632051     -0.417493
  H      -2.689836     -0.437280      0.648327
  C      -0.746922     -1.169010      0.087932
  H       0.255876     -0.774272     -0.109961
  H      -0.623839     -1.820101      0.958846
  C      -1.231944     -2.014065     -1.078897
  C      -0.437023     -3.202273     -1.512215
  C      -1.759236     -3.394292     -0.829717
  H      -1.720573     -1.485542     -1.898333
  H       0.467263     -3.441031     -0.963230
  H      -0.375022     -3.419589     -2.572777
  H      -1.705316     -3.727799      0.202840
  C      -2.952183     -3.938358     -1.586446
  H      -3.872688     -3.574229     -1.117365
  H      -2.950157     -3.533994     -2.603646
  C      -2.987343     -5.465012     -1.648338
  H      -2.067599     -5.826126     -2.117523
  H      -2.983722     -5.865515     -0.629735
  C      -1.231240      0.791126      1.649069
  H      -0.252553      1.241740      1.466872
  H      -1.931194      1.598780      1.871888
  H      -1.146998      0.169682      2.543983
  C      -4.194226     -6.013735     -2.402644
  H      -4.185357     -7.105260     -2.423529
  H      -5.130816     -5.699000     -1.935848
  H      -4.207633     -5.663104     -3.437623
27
Coordinates from ORCA-job 20 Relaxed Surface Scan Step 6
  C      -1.027208      0.175526      0.263537
  H      -0.152401      0.095458     -0.388138
  H      -1.788405      0.704992     -0.318033
  C      -1.533669     -1.228303      0.596460
  H      -0.782053     -1.747465      1.180351
  H      -2.405769     -1.146526      1.254158
  C      -1.949918     -2.009555     -0.632613
  C      -1.008946     -2.670878     -1.606016
  C      -1.931042     -3.505986     -0.771236
  H      -2.796655     -1.500378     -1.067403
  H       0.049352     -2.686326     -1.368533
  H      -1.219939     -2.570752     -2.664979
  H      -1.450727     -4.037918      0.046435
  C      -3.091924     -4.253303     -1.391556
  H      -3.876200     -4.388568     -0.639173
  H      -3.533256     -3.639789     -2.183254
  C      -2.699814     -5.615305     -1.963378
  H      -1.914820     -5.477381     -2.712615
  H      -2.255522     -6.223481     -1.169244
  C      -0.670186      0.998955      1.496938
  H       0.116725      0.516332      2.081871
  H      -0.313304      1.992764      1.219580
  H      -1.535314      1.128565      2.151895
  C      -3.869892     -6.371543     -2.584407
  H      -3.551686     -7.338489     -2.978990
  H      -4.657565     -6.556491     -1.849890
  H      -4.313553     -5.807558     -3.408645
27
Coordinates from ORCA-job 20 Relaxed Surface Scan Step 7
  C      -1.085041      0.212518      0.279963
  H      -0.320301      0.211614     -0.502049
  H      -1.896642      0.845739     -0.091471
  C      -1.610501     -1.208272      0.470450
  H      -0.788820     -1.876444      0.831743
  H      -2.379122     -1.212796      1.250658
  C      -2.136311     -1.868227     -0.796421
  C      -1.092362     -2.563070     -1.593939
  C      -2.087684     -3.348561     -0.779429
  H      -2.956181     -1.488668     -1.428968
  H      -0.064351     -2.510190     -1.255687
  H      -1.193012     -2.593550     -2.673294
  H      -1.704308     -3.795135      0.132940
  C      -3.148502     -4.187181     -1.461229
  H      -4.019926     -4.268660     -0.802058
  H      -3.497407     -3.670997     -2.361369
  C      -2.668738     -5.588639     -1.836826
  H      -1.800200     -5.505180     -2.496417
  H      -2.315357     -6.099956     -0.935931
  C      -0.510357      0.821998      1.554688
  H       0.328193      0.231782      1.932685
  H      -0.148188      1.837004      1.380052
  H      -1.262635      0.870357      2.345797
  C      -3.742043     -6.437184     -2.511100
  H      -3.362614     -7.429751     -2.761698
  H      -4.610486     -6.569011     -1.861014
  H      -4.090793     -5.972942     -3.436952
27
Coordinates from ORCA-job 20 Relaxed Surface Scan Step 8
  C      -1.084126      0.203502      0.297112
  H      -0.373087      0.230709     -0.533253
  H      -1.869999      0.922479      0.047387
  C      -1.698737     -1.188706      0.391201
  H      -0.881957     -1.982944      0.641968
  H      -2.425837     -1.215471      1.208941
  C      -2.308345     -1.755663     -0.921780
  C      -1.196647     -2.418938     -1.601411
  C      -2.225458     -3.205877     -0.793391
  H      -3.087061     -1.569731     -1.729679
  H      -0.188556     -2.304006     -1.227625
  H      -1.234912     -2.545019     -2.678463
  H      -1.902554     -3.600404      0.161941
  C      -3.190714     -4.132885     -1.506105
  H      -4.114456     -4.204984     -0.920011
  H      -3.478689     -3.699401     -2.469500
  C      -2.632299     -5.536573     -1.735514
  H      -1.714125     -5.464100     -2.325339
  H      -2.339142     -5.967260     -0.772942
  C      -0.385519      0.641021      1.580787
  H       0.430446     -0.038710      1.838922
  H       0.037842      1.642157      1.479271
  H      -1.079417      0.659055      2.424725
  C      -3.613586     -6.475223     -2.430327
  H      -3.179109     -7.466475     -2.574036
  H      -4.528958     -6.596441     -1.845855
  H      -3.898687     -6.093514     -3.413903
27
Coordinates from ORCA-job 20 Relaxed Surface Scan Step 9
  C      -1.085242      0.187190      0.318893
  H      -0.419084      0.255709     -0.545075
  H      -1.853836      0.951351      0.172676
  C      -1.750055     -1.181613      0.343229
  H      -0.931013     -2.070076      0.503572
  H      -2.453710     -1.237748      1.178138
  C      -2.436026     -1.673068     -1.023116
  C      -1.276781     -2.286174     -1.619710
  C      -2.336762     -3.091654     -0.810567
  H      -3.144418     -1.691467     -1.972569
  H      -0.279411     -2.126879     -1.240247
  H      -1.273025     -2.483017     -2.688146
  H      -2.064873     -3.462028      0.166708
  C      -3.220661     -4.086284     -1.543687
  H      -4.184055     -4.153052     -1.023102
  H      -3.449293     -3.721772     -2.550963
  C      -2.611958     -5.483586     -1.648503
  H      -1.655367     -5.417335     -2.174418
  H      -2.378789     -5.849139     -0.643488
  C      -0.300995      0.491283      1.592018
  H       0.500401     -0.235492      1.746787
  H       0.155288      1.481973      1.546854
  H      -0.946417      0.464064      2.473299
  C      -3.515593     -6.490137     -2.353575
  H      -3.046128     -7.474441     -2.406424
  H      -4.467556     -6.604979     -1.829377
  H      -3.738333     -6.175032     -3.376087
27
Coordinates from ORCA-job 20 Relaxed Surface Scan Step 10
  C      -1.087849      0.170701      0.348314
  H      -0.459937      0.287646     -0.538035
  H      -1.847310      0.954940      0.292359
  C      -1.776491     -1.182085      0.316562
  H      -0.955614     -2.144609      0.382721
  H      -2.471491     -1.273337      1.153291
  C      -2.535030     -1.607761     -1.113293
  C      -1.337619     -2.157016     -1.655678
  C      -2.428589     -2.998805     -0.837486
  H      -3.151783     -1.836113     -2.171770
  H      -0.347500     -1.965868     -1.276390
  H      -1.296147     -2.398034     -2.716071
  H      -2.189455     -3.359121      0.149641
  C      -3.244627     -4.049892     -1.577487
  H      -4.237273     -4.111651     -1.112824
  H      -3.420768     -3.747546     -2.616177
  C      -2.604284     -5.436677     -1.573332
  H      -1.618810     -5.374673     -2.043329
  H      -2.426051     -5.745927     -0.538595
  C      -0.240017      0.368711      1.602316
  H       0.554104     -0.379258      1.666304
  H       0.231599      1.353169      1.605487
  H      -0.844198      0.288361      2.509145
  C      -3.443487     -6.497888     -2.277904
  H      -2.952301     -7.472603     -2.251285
  H      -4.423183     -6.607655     -1.806396
  H      -3.609579     -6.240411     -3.326969
27
Coordinates from ORCA-job 20 Relaxed Surface Scan Step 11
  C      -1.093820      0.162115      0.380435
  H      -0.493545      0.323765     -0.517201
  H      -1.853189      0.947698      0.390585
  C      -1.784004     -1.184389      0.307206
  H      -0.969932     -2.181079      0.293331
  H      -2.482795     -1.308555      1.134684
  C      -2.588738     -1.566404     -1.178875
  C      -1.359283     -2.029562     -1.701934
  C      -2.503597     -2.938898     -0.868630
  H      -3.059956     -2.020511     -2.351060
  H      -0.377588     -1.851871     -1.293973
  H      -1.266914     -2.267483     -2.761264
  H      -2.254110     -3.300596      0.115377
  C      -3.277607     -4.033471     -1.595024
  H      -4.278874     -4.098414     -1.148186
  H      -3.442622     -3.778195     -2.649403
  C      -2.609781     -5.405599     -1.529881
  H      -1.615936     -5.337719     -1.980800
  H      -2.447876     -5.675589     -0.481681
  C      -0.205029      0.291126      1.616084
  H       0.590642     -0.457787      1.612724
  H       0.266044      1.274971      1.656693
  H      -0.778974      0.160899      2.536573
  C      -3.412678     -6.507212     -2.214354
  H      -2.902506     -7.469819     -2.143539
  H      -4.399806     -6.621090     -1.759742
  H      -3.561215     -6.289732     -3.275024
27
Coordinates from ORCA-job 20 Relaxed Surface Scan Step 12
  C      -1.012846     -0.230355      0.523572
  H       0.068092     -0.164961      0.378854
  H      -1.450485      0.595421     -0.043643
  C      -1.523041     -1.559404     -0.026025
  H      -1.117249     -2.372710      0.581174
  H      -2.605846     -1.611948      0.128436
  C      -1.239895     -1.853723     -1.486199
  C      -0.697115     -0.969041     -2.312937
  C      -1.569403     -3.252250     -2.000664
  H      -1.879663     -3.157939     -3.043966
  H      -0.411394      0.026483     -2.003074
  H      -0.513074     -1.217577     -3.352054
  H      -0.654630     -3.853673     -1.986791
  C      -2.669700     -4.022529     -1.267346
  H      -2.400583     -4.174901     -0.219754
  H      -3.595139     -3.436442     -1.266121
  C      -2.937567     -5.384767     -1.904277
  H      -3.172250     -5.248224     -2.964435
  H      -2.019705     -5.980387     -1.874542
  C      -1.337742     -0.047699      2.003295
  H      -0.902452     -0.846896      2.606991
  H      -0.947352      0.899177      2.379107
  H      -2.415952     -0.050563      2.177903
  C      -4.069377     -6.160676     -1.237347
  H      -4.178150     -7.153556     -1.680409
  H      -3.885703     -6.291561     -0.168560
  H      -5.025468     -5.642701     -1.348065
27
Coordinates from ORCA-job 20 Relaxed Surface Scan Step 13
  C      -1.004091     -0.215995      0.523938
  H       0.059735     -0.098566      0.302071
  H      -1.520197      0.587664     -0.006455
  C      -1.487058     -1.568108      0.006247
  H      -1.017536     -2.362774      0.594283
  H      -2.557593     -1.662287      0.215671
  C      -1.268162     -1.864730     -1.464136
  C      -0.896513     -0.946523     -2.347003
  C      -1.475016     -3.304406     -1.904035
  H      -1.570519     -3.317760     -2.991070
  H      -0.703084      0.081844     -2.075406
  H      -0.766079     -1.197376     -3.392899
  H      -0.580675     -3.883335     -1.647827
  C      -2.705050     -4.008555     -1.321773
  H      -2.624539     -4.079635     -0.234165
  H      -3.596461     -3.406028     -1.525228
  C      -2.905461     -5.411456     -1.892802
  H      -3.003295     -5.348632     -2.980973
  H      -2.007602     -6.008754     -1.704768
  C      -1.231807     -0.048618      2.023499
  H      -0.697380     -0.811341      2.594990
  H      -0.882769      0.926854      2.367431
  H      -2.291878     -0.128406      2.276415
  C      -4.120860     -6.131666     -1.317838
  H      -4.232482     -7.127320     -1.751519
  H      -4.036308     -6.249789     -0.234831
  H      -5.041010     -5.577704     -1.518695
27
Coordinates from ORCA-job 20 Relaxed Surface Scan Step 14
  C      -1.015057     -0.181349      0.520088
  H       0.008547      0.035324      0.203910
  H      -1.652754      0.557114      0.028313
  C      -1.404906     -1.583876      0.061672
  H      -0.799946     -2.317724      0.605558
  H      -2.435789     -1.780140      0.373058
  C      -1.288741     -1.886963     -1.418663
  C      -1.058150     -0.962164     -2.341701
  C      -1.434278     -3.345166     -1.807912
  H      -1.355542     -3.427504     -2.893340
  H      -0.928674      0.084023     -2.101472
  H      -0.986487     -1.224492     -3.390311
  H      -0.593165     -3.907841     -1.387174
  C      -2.743252     -4.008469     -1.364997
  H      -2.811734     -4.017889     -0.274011
  H      -3.586856     -3.408195     -1.720985
  C      -2.886441     -5.439611     -1.880026
  H      -2.833071     -5.437355     -2.973102
  H      -2.032880     -6.033274     -1.537564
  C      -1.126294     -0.007673      2.032031
  H      -0.471298     -0.703542      2.561849
  H      -0.846407      1.003624      2.333005
  H      -2.147115     -0.185283      2.379108
  C      -4.181105     -6.115050     -1.439468
  H      -4.248611     -7.132872     -1.828553
  H      -4.248181     -6.171773     -0.350282
  H      -5.055506     -5.565284     -1.795910
27
Coordinates from ORCA-job 20 Relaxed Surface Scan Step 15
  C      -1.061451     -0.148625      0.521509
  H      -0.124438      0.220630      0.097150
  H      -1.857452      0.466392      0.094243
  C      -1.266810     -1.605530      0.117246
  H      -0.482644     -2.217100      0.577952
  H      -2.202707     -1.962930      0.557843
  C      -1.282383     -1.920293     -1.364860
  C      -1.185369     -0.999504     -2.315082
  C      -1.406818     -3.388983     -1.720006
  H      -1.188900     -3.516031     -2.782027
  H      -1.096607      0.056300     -2.099781
  H      -1.190383     -1.275516     -3.362754
  H      -0.640780     -3.953730     -1.177738
  C      -2.779942     -4.003472     -1.422792
  H      -3.001315     -3.933140     -0.354384
  H      -3.548779     -3.416502     -1.934548
  C      -2.883920     -5.465307     -1.854068
  H      -2.671567     -5.541876     -2.924959
  H      -2.105589     -6.046869     -1.349894
  C      -1.038981      0.041598      2.035357
  H      -0.229764     -0.529959      2.496269
  H      -0.892916      1.091210      2.297292
  H      -1.976369     -0.285629      2.491728
  C      -4.246502     -6.086543     -1.564201
  H      -4.283411     -7.128365     -1.888490
  H      -4.473312     -6.064096     -0.495517
  H      -5.044581     -5.549534     -2.082369
27
Coordinates from ORCA-job 20 Relaxed Surface Scan Step 16
  C      -1.122918     -0.144988      0.537072
  H      -0.315585      0.379651      0.020241
  H      -2.055211      0.316864      0.201779
  C      -1.112508     -1.617888      0.140612
  H      -0.173398     -2.072682      0.477671
  H      -1.897645     -2.141006      0.696386
  C      -1.270138     -1.945353     -1.329600
  C      -1.309252     -1.034353     -2.292798
  C      -1.381408     -3.423907     -1.650078
  H      -1.028871     -3.599829     -2.668427
  H      -1.253055      0.027517     -2.097035
  H      -1.401539     -1.325797     -3.332586
  H      -0.708739     -3.984783     -0.993535
  C      -2.801138     -3.984038     -1.504888
  H      -3.175905     -3.790562     -0.495316
  H      -3.465199     -3.441681     -2.184000
  C      -2.888270     -5.481718     -1.792375
  H      -2.509296     -5.678177     -2.800229
  H      -2.223228     -6.020249     -1.109859
  C      -0.970218      0.059043      2.041544
  H      -0.030001     -0.361327      2.406588
  H      -0.978917      1.120288      2.297092
  H      -1.782726     -0.420452      2.592827
  C      -4.301764     -6.041028     -1.666595
  H      -4.324315     -7.111431     -1.880272
  H      -4.697061     -5.896091     -0.658254
  H      -4.985384     -5.549425     -2.362840
27
Coordinates from ORCA-job 20 Relaxed Surface Scan Step 17
  C      -1.107779     -0.111527      0.556610
  H      -0.391031      0.450632     -0.047118
  H      -2.096640      0.282084      0.307211
  C      -1.040357     -1.589257      0.186261
  H      -0.041636     -1.975197      0.426727
  H      -1.726917     -2.152498      0.828484
  C      -1.328834     -1.963361     -1.251244
  C      -1.506521     -1.084210     -2.227849
  C      -1.402382     -3.457404     -1.519243
  H      -0.880844     -3.683091     -2.452442
  H      -1.481668     -0.015509     -2.065678
  H      -1.687162     -1.410115     -3.245956
  H      -0.851788     -3.987834     -0.737176
  C      -2.832649     -4.003437     -1.572551
  H      -3.356095     -3.739973     -0.647694
  H      -3.375577     -3.502905     -2.378945
  C      -2.894582     -5.515934     -1.775676
  H      -2.362957     -5.777964     -2.695930
  H      -2.354374     -6.012737     -0.963584
  C      -0.821286      0.137772      2.034534
  H       0.175318     -0.214523      2.311414
  H      -0.872873      1.202255      2.270802
  H      -1.543148     -0.377922      2.672454
  C      -4.318126     -6.059774     -1.842205
  H      -4.322139     -7.141723     -1.988202
  H      -4.866677     -5.847610     -0.921301
  H      -4.874966     -5.611641     -2.668583
27
Coordinates from ORCA-job 20 Relaxed Surface Scan Step 18
  C      -1.024610     -0.045741      0.565770
  H      -0.357210      0.464439     -0.133341
  H      -2.022763      0.365950      0.395489
  C      -1.032016     -1.540627      0.266087
  H      -0.027672     -1.946928      0.438875
  H      -1.674726     -2.050698      0.993151
  C      -1.461624     -1.975926     -1.118026
  C      -1.770683     -1.134821     -2.095337
  C      -1.498965     -3.483545     -1.328877
  H      -0.806724     -3.748095     -2.133263
  H      -1.752991     -0.061306     -1.968794
  H      -2.055102     -1.494484     -3.077376
  H      -1.110631     -3.977091     -0.434489
  C      -2.888887     -4.049079     -1.632416
  H      -3.576166     -3.760204     -0.830795
  H      -3.279345     -3.588838     -2.543663
  C      -2.898330     -5.568482     -1.788116
  H      -2.204520     -5.853996     -2.585197
  H      -2.512008     -6.028826     -0.873234
  C      -0.587504      0.264673      1.994470
  H       0.422124     -0.104274      2.190696
  H      -0.588170      1.340278      2.180682
  H      -1.256089     -0.197750      2.724615
  C      -4.280461     -6.136834     -2.093922
  H      -4.247720     -7.223156     -2.197661
  H      -4.990637     -5.901094     -1.297688
  H      -4.680263     -5.726947     -3.024518
27
Coordinates from ORCA-job 20 Relaxed Surface Scan Step 19
  C      -0.921644      0.007024      0.555948
  H      -0.295741      0.428697     -0.234712
  H      -1.900310      0.484289      0.462170
  C      -1.063419     -1.496633      0.347029
  H      -0.083641     -1.970690      0.475301
  H      -1.684486     -1.913720      1.148634
  C      -1.638698     -1.972980     -0.970378
  C      -2.078295     -1.154950     -1.917237
  C      -1.651296     -3.486584     -1.132604
  H      -0.807540     -3.781112     -1.765598
  H      -2.051426     -0.079602     -1.809871
  H      -2.482803     -1.527885     -2.849300
  H      -1.462466     -3.944129     -0.158263
  C      -2.936043     -4.086033     -1.707720
  H      -3.786403     -3.765396     -1.098286
  H      -3.116107     -3.691595     -2.710545
  C      -2.902247     -5.612004     -1.774305
  H      -2.046664     -5.928953     -2.379119
  H      -2.728081     -6.014729     -0.771508
  C      -0.321560      0.356224      1.914890
  H       0.675603     -0.074853      2.032294
  H      -0.230865      1.437031      2.038313
  H      -0.942170     -0.018993      2.732225
  C      -4.178207     -6.220853     -2.347000
  H      -4.117742     -7.310497     -2.377541
  H      -5.049470     -5.953856     -1.744115
  H      -4.361967     -5.870621     -3.365581
27
Coordinates from ORCA-job 20 Relaxed Surface Scan Step 20
  C      -0.843798      0.030586      0.527396
  H      -0.276765      0.374317     -0.341624
  H      -1.795992      0.566125      0.505747
  C      -1.095229     -1.469172      0.410981
  H      -0.140738     -1.999933      0.492950
  H      -1.675694     -1.803124      1.279205
  C      -1.806499     -1.969543     -0.830056
  C      -2.363603     -1.167842     -1.728160
  C      -1.815339     -3.482890     -0.951898
  H      -0.862255     -3.801436     -1.389625
  H      -2.328441     -0.091197     -1.636911
  H      -2.880325     -1.552011     -2.596801
  H      -1.833511     -3.908187      0.055835
  C      -2.948599     -4.104818     -1.766622
  H      -3.909946     -3.749725     -1.383849
  H      -2.888865     -3.768874     -2.804943
  C      -2.924060     -5.632559     -1.742531
  H      -1.957330     -5.985605     -2.115382
  H      -2.992810     -5.979660     -0.706778
  C      -0.091580      0.401563      1.802251
  H       0.885972     -0.084870      1.843493
  H       0.072743      1.479077      1.862074
  H      -0.647722      0.101877      2.693833
  C      -4.042826     -6.268069     -2.561769
  H      -3.994809     -7.357916     -2.518826
  H      -5.025322     -5.964616     -2.192343
  H      -3.980348     -5.974901     -3.612526
27
Coordinates from ORCA-job 20 Relaxed Surface Scan Step 21
  C      -0.825467      0.039666      0.509094
  H      -0.339014      0.380549     -0.408424
  H      -1.779542      0.569155      0.567714
  C      -1.076294     -1.462703      0.426077
  H      -0.113256     -1.984823      0.417169
  H      -1.567575     -1.793401      1.348514
  C      -1.897244     -1.975239     -0.740482
  C      -2.500376     -1.182074     -1.616137
  C      -1.956917     -3.488814     -0.806008
  H      -0.952691     -3.856528     -1.046468
  H      -2.432410     -0.104858     -1.555970
  H      -3.090136     -1.573490     -2.433137
  H      -2.167233     -3.862541      0.201635
  C      -2.950717     -4.112180     -1.781889
  H      -3.956009     -3.735429     -1.572216
  H      -2.711327     -3.801283     -2.802493
  C      -2.960903     -5.639084     -1.718867
  H      -1.953361     -6.016927     -1.919320
  H      -3.205875     -5.958125     -0.700955
  C       0.034271      0.424447      1.709719
  H       1.014930     -0.055608      1.667269
  H       0.195940      1.503366      1.747561
  H      -0.438514      0.127784      2.649121
  C      -3.942277     -6.277451     -2.696620
  H      -3.923630     -7.366477     -2.621765
  H      -4.965933     -5.949213     -2.500991
  H      -3.702130     -6.012121     -3.729011
27
Coordinates from ORCA-job 20 Relaxed Surface Scan Step 22
  C      -0.833159      0.042883      0.511487
  H      -0.440276      0.434791     -0.429967
  H      -1.800144      0.527468      0.668273
  C      -1.029177     -1.465523      0.396492
  H      -0.051648     -1.941692      0.258808
  H      -1.400028     -1.849831      1.353451
  C      -1.949091     -1.974305     -0.695790
  C      -2.567762     -1.180600     -1.559795
  C      -2.089342     -3.483739     -0.695997
  H      -1.082334     -3.912701     -0.743112
  H      -2.452726     -0.106035     -1.535363
  H      -3.217728     -1.568897     -2.331380
  H      -2.479344     -3.782926      0.283443
  C      -2.949934     -4.114113     -1.785889
  H      -3.968038     -3.719135     -1.726783
  H      -2.564682     -3.829072     -2.769037
  C      -3.000268     -5.638536     -1.689787
  H      -1.983429     -6.039333     -1.747432
  H      -3.383108     -5.927070     -0.705822
  C       0.111116      0.425476      1.647545
  H       1.102332     -0.011903      1.505576
  H       0.233538      1.508480      1.708714
  H      -0.267193      0.080407      2.612832
  C      -3.858208     -6.284106     -2.773230
  H      -3.870808     -7.371144     -2.672709
  H      -4.892051     -5.934401     -2.720592
  H      -3.480198     -6.047844     -3.770813
27
Coordinates from ORCA-job 20 Relaxed Surface Scan Step 23
  C      -0.829264      0.037457      0.513344
  H      -0.519208      0.470019     -0.441013
  H      -1.789387      0.496361      0.762949
  C      -1.008186     -1.469518      0.359675
  H      -0.040921     -1.919767      0.105844
  H      -1.275869     -1.897839      1.332311
  C      -2.019002     -1.958439     -0.658028
  C      -2.661260     -1.155363     -1.495439
  C      -2.227892     -3.460073     -0.610300
  H      -1.247815     -3.928709     -0.473697
  H      -2.507695     -0.085304     -1.495886
  H      -3.369549     -1.531687     -2.220545
  H      -2.775693     -3.688599      0.311712
  C      -2.942428     -4.112546     -1.789173