29
Coordinates from ORCA-job 1 Relaxed Surface Scan Step 1
  C       0.765663     -1.091652      0.322960
  C       1.414227      0.271247      0.092080
  C       0.947577      1.253814      1.163054
  C      -0.576233      1.279961      1.239638
  C      -1.207602     -0.116972      1.214408
  H       1.048280     -1.429621      1.322896
  H       1.271260      2.258013      0.877591
  H      -0.865862      1.770733      2.170322
  H      -2.252844     -0.012906      0.906243
  H       1.101178      0.649421     -0.883807
  O      -0.632397     -0.927417      0.249729
  O       2.811378      0.207357      0.185670
  H       3.188794     -0.136301     -0.606969
  O       1.460838      0.909010      2.407955
  H       2.394191      0.783041      2.320747
  O      -0.997914      2.005441      0.119299
  H      -1.931532      2.138410      0.139986
  O      -1.136012     -0.681862      2.463968
  C      -1.983378     -1.773186      2.704995
  H      -2.958311     -1.399910      3.037215
  H      -2.130384     -2.348013      1.789203
  C      -1.376738     -2.643148      3.784137
  H      -1.203758     -2.060295      4.689270
  H      -2.045012     -3.471758      4.026367
  H      -0.420486     -3.052569      3.456614
  C       1.150998     -2.137976     -0.703244
  H       2.220600     -2.347997     -0.663006
  H       0.617852     -3.067618     -0.504743
  H       0.888197     -1.806927     -1.710089
29
Coordinates from ORCA-job 1 Relaxed Surface Scan Step 2
  C       0.775191     -1.088832      0.289243
  C       1.417007      0.280241      0.076210
  C       0.957751      1.242181      1.168892
  C      -0.565188      1.261468      1.260745
  C      -1.191907     -0.137263      1.218311
  H       1.069048     -1.443440      1.279849
  H       1.275823      2.252280      0.898298
  H      -0.847265      1.735545      2.202355
  H      -2.240737     -0.031457      0.922873
  H       1.093337      0.674571     -0.889746
  O      -0.624142     -0.929007      0.234106
  O       2.815201      0.219026      0.155550
  H       3.186283     -0.107374     -0.647305
  O       1.483904      0.876924      2.402523
  H       2.416486      0.753586      2.304009
  O      -1.000309      2.003983      0.156909
  H      -1.934516      2.130857      0.187126
  O      -1.108017     -0.722374      2.457960
  C      -1.956052     -1.815510      2.684502
  H      -2.966406     -1.445299      2.892599
  H      -2.001784     -2.448580      1.796587
  C      -1.441049     -2.599334      3.871151
  H      -1.375445     -1.958456      4.750848
  H      -2.109349     -3.432595      4.096369
  H      -0.446405     -2.996920      3.666678
  C       1.153202     -2.115135     -0.759651
  H       2.224326     -2.319869     -0.736601
  H       0.627666     -3.051089     -0.570828
  H       0.875916     -1.767808     -1.757075
29
Coordinates from ORCA-job 1 Relaxed Surface Scan Step 3
  C       0.776190     -1.088426      0.260189
  C       1.418222      0.283751      0.067998
  C       0.965898      1.228801      1.178091
  C      -0.556359      1.248175      1.278387
  C      -1.183162     -0.149789      1.222153
  H       1.079721     -1.463878      1.239788
  H       1.283718      2.242595      0.921225
  H      -0.833053      1.710181      2.227552
  H      -2.234598     -0.041839      0.936435
  H       1.091060      0.694701     -0.889812
  O      -0.623493     -0.928140      0.222739
  O       2.816754      0.219070      0.140356
  H       3.184165     -0.092659     -0.669982
  O       1.498503      0.844004      2.402898
  H       2.430359      0.721235      2.297133
  O      -0.997130      2.004836      0.186566
  H      -1.931363      2.130067      0.222560
  O      -1.090842     -0.747586      2.455155
  C      -1.915985     -1.860303      2.665369
  H      -2.956409     -1.524306      2.746260
  H      -1.849967     -2.544842      1.817598
  C      -1.491438     -2.548953      3.942929
  H      -1.546668     -1.858172      4.784760
  H      -2.140058     -3.402369      4.149110
  H      -0.463633     -2.904444      3.863414
  C       1.143003     -2.093511     -0.813053
  H       2.214255     -2.298782     -0.805159
  H       0.619249     -3.033099     -0.637864
  H       0.855631     -1.725996     -1.800308
29
Coordinates from ORCA-job 1 Relaxed Surface Scan Step 4
  C       0.770549     -1.089223      0.234788
  C       1.418278      0.283387      0.064572
  C       0.973020      1.214973      1.188769
  C      -0.548716      1.239464      1.293756
  C      -1.179044     -0.155992      1.226768
  H       1.082239     -1.487735      1.202282
  H       1.294455      2.230681      0.944025
  H      -0.820903      1.693031      2.248258
  H      -2.232696     -0.044963      0.949879
  H       1.092659      0.710930     -0.886464
  O      -0.628760     -0.924648      0.214727
  O       2.816679      0.209988      0.134768
  H       3.182202     -0.088093     -0.681534
  O       1.508070      0.811958      2.406493
  H       2.438994      0.686654      2.295698
  O      -0.990268      2.008007      0.210735
  H      -1.924290      2.134027      0.249702
  O      -1.079659     -0.761767      2.455176
  C      -1.862181     -1.906775      2.648350
  H      -2.922666     -1.632439      2.598368
  H      -1.672411     -2.632341      1.854948
  C      -1.536011     -2.495923      4.002117
  H      -1.725237     -1.767637      4.791270
  H      -2.147573     -3.380389      4.189679
  H      -0.485142     -2.782742      4.050980
  C       1.122902     -2.072786     -0.863131
  H       2.193473     -2.281715     -0.870551
  H       0.597757     -3.014214     -0.702610
  H       0.826848     -1.683398     -1.839327
29
Coordinates from ORCA-job 1 Relaxed Surface Scan Step 5
  C       0.759427     -1.090919      0.211531
  C       1.417569      0.279757      0.064643
  C       0.979250      1.200988      1.200096
  C      -0.542082      1.234261      1.307184
  C      -1.177948     -0.157664      1.232888
  H       1.078342     -1.514784      1.165383
  H       1.306968      2.217182      0.965587
  H      -0.810383      1.682819      2.265132
  H      -2.233976     -0.043454      0.965690
  H       1.098400      0.724005     -0.880888
  O      -0.638887     -0.919234      0.209632
  O       2.815362      0.192682      0.137285
  H       3.181008     -0.091804     -0.683796
  O       1.513927      0.781580      2.412233
  H       2.443688      0.651097      2.297830
  O      -0.981056      2.012126      0.229982
  H      -1.914814      2.140072      0.269481
  O      -1.070152     -0.767913      2.458149
  C      -1.793043     -1.952772      2.635819
  H      -2.857457     -1.763994      2.451623
  H      -1.469145     -2.705304      1.913967
  C      -1.580093     -2.442382      4.050440
  H      -1.913907     -1.693354      4.769200
  H      -2.138622     -3.364311      4.222359
  H      -0.522571     -2.637217      4.230972
  C       1.094173     -2.051881     -0.911837
  H       2.163337     -2.266878     -0.935456
  H       0.565040     -2.993607     -0.766924
  H       0.790217     -1.638778     -1.875717
29
Coordinates from ORCA-job 1 Relaxed Surface Scan Step 6
  C       0.742759     -1.093905      0.189266
  C       1.417132      0.272066      0.069866
  C       0.982989      1.186771      1.212432
  C      -0.538229      1.232071      1.316220
  C      -1.180414     -0.155948      1.239227
  H       1.067053     -1.547171      1.126927
  H       1.319645      2.201987      0.985966
  H      -0.805147      1.680468      2.274628
  H      -2.239167     -0.039757      0.982966
  H       1.113213      0.733629     -0.872359
  O      -0.653892     -0.912862      0.206259
  O       2.813386      0.164686      0.154331
  H       3.183969     -0.105866     -0.669239
  O       1.512447      0.754119      2.421872
  H       2.440852      0.615059      2.306719
  O      -0.969743      2.014800      0.239794
  H      -1.903392      2.144918      0.275141
  O      -1.061254     -0.766380      2.463184
  C      -1.711397     -1.992825      2.631531
  H      -2.759400     -1.906832      2.320698
  H      -1.253847     -2.753770      1.995539
  C      -1.619863     -2.391549      4.087326
  H      -2.095945     -1.642528      4.721041
  H      -2.112877     -3.351557      4.251167
  H      -0.576625     -2.479273      4.391984
  C       1.057389     -2.029080     -0.961614
  H       2.124429     -2.252129     -1.002464
  H       0.521859     -2.969786     -0.834704
  H       0.746640     -1.589035     -1.911217
29
Coordinates from ORCA-job 1 Relaxed Surface Scan Step 7
  C       0.720084     -1.098184      0.167127
  C       1.418130      0.259205      0.082611
  C       0.982209      1.172054      1.226606
  C      -0.539403      1.232511      1.317810
  C      -1.188550     -0.151435      1.242083
  H       1.045134     -1.585488      1.085926
  H       1.330677      2.184783      1.006186
  H      -0.809721      1.686344      2.272716
  H      -2.249966     -0.034560      0.996555
  H       1.143258      0.739100     -0.859324
  O      -0.674186     -0.905688      0.201399
  O       2.810830      0.122110      0.193879
  H       3.194424     -0.133553     -0.628484
  O       1.498719      0.730538      2.437950
  H       2.425583      0.578565      2.327013
  O      -0.955880      2.014802      0.235509
  H      -1.889665      2.146794      0.259182
  O      -1.056297     -0.757489      2.466917
  C      -1.626087     -2.021979      2.636347
  H      -2.641091     -2.045595      2.222841
  H      -1.049761     -2.771573      2.088963
  C      -1.645164     -2.346734      4.113394
  H      -2.245084     -1.617771      4.659491
  H      -2.066189     -3.339985      4.280170
  H      -0.633262     -2.324514      4.518824
  C       1.014584     -2.002955     -1.013303
  H       2.078931     -2.235303     -1.070895
  H       0.470559     -2.941490     -0.908424
  H       0.699755     -1.532188     -1.946584
29
Coordinates from ORCA-job 1 Relaxed Surface Scan Step 8
  C       0.691896     -1.102458      0.144520
  C       1.420106      0.241747      0.101041
  C       0.977816      1.156694      1.242027
  C      -0.544448      1.234761      1.313428
  C      -1.202433     -0.144500      1.240114
  H       1.011972     -1.625083      1.043336
  H       1.340054      2.165815      1.026412
  H      -0.821523      1.697480      2.262129
  H      -2.265929     -0.026201      1.003901
  H       1.186823      0.740495     -0.842223
  O      -0.699400     -0.896865      0.193123
  O       2.806042      0.064895      0.251180
  H       3.209584     -0.173244     -0.566877
  O       1.475380      0.709989      2.458823
  H       2.400283      0.541470      2.355974
  O      -0.939421      2.013819      0.221140
  H      -1.873313      2.147278      0.226972
  O      -1.058229     -0.743836      2.467310
  C      -1.540459     -2.041899      2.647088
  H      -2.509781     -2.178532      2.154421
  H      -0.859376     -2.761999      2.186680
  C      -1.656517     -2.308172      4.131735
  H      -2.362813     -1.616396      4.592546
  H      -2.000741     -3.328542      4.310931
  H      -0.688431     -2.176508      4.615698
  C       0.968361     -1.973962     -1.065154
  H       2.029759     -2.215729     -1.137645
  H       0.414682     -2.909278     -0.985126
  H       0.652623     -1.470919     -1.981017
29
Coordinates from ORCA-job 1 Relaxed Surface Scan Step 9
  C       0.663834     -1.104765      0.116686
  C       1.421315      0.224149      0.109804
  C       0.980428      1.140205      1.252093
  C      -0.541940      1.232476      1.318063
  C      -1.208210     -0.142676      1.247066
  H       0.980628     -1.657485      0.995680
  H       1.351305      2.146865      1.038787
  H      -0.818141      1.699475      2.264924
  H      -2.275431     -0.022909      1.028828
  H       1.224065      0.741093     -0.831680
  O      -0.724192     -0.886898      0.185963
  O       2.799567      0.002933      0.286943
  H       3.223430     -0.179020     -0.535168
  O       1.472109      0.689896      2.469532
  H       2.393739      0.505310      2.365074
  O      -0.925690      2.012567      0.222735
  H      -1.860681      2.138303      0.214150
  O      -1.040768     -0.740682      2.472339
  C      -1.433039     -2.065730      2.672023
  H      -2.315783     -2.327922      2.079477
  H      -0.638153     -2.740162      2.342829
  C      -1.705173     -2.268153      4.146716
  H      -2.525542     -1.629775      4.477700
  H      -1.970064     -3.307997      4.347644
  H      -0.820698     -2.014346      4.731452
  C       0.919676     -1.944200     -1.119669
  H       1.978806     -2.188840     -1.211597
  H       0.361253     -2.878147     -1.059177
  H       0.595919     -1.413242     -2.016729
29
Coordinates from ORCA-job 1 Relaxed Surface Scan Step 10
  C       0.758396     -1.115208      0.100930
  C       1.348662      0.281081     -0.080961
  C       1.114736      1.140262      1.160928
  C      -0.352999      1.105122      1.574968
  C      -0.934137     -0.311565      1.574746
  H       1.284477     -1.596053      0.925225
  H       1.350209      2.178844      0.910328
  H      -0.437826      1.511627      2.584182
  H      -2.025453     -0.239255      1.552364
  H       0.856977      0.760637     -0.929199
  O      -0.609772     -0.998931      0.417291
  O       2.738625      0.196604     -0.280129
  H       2.965739      0.377227     -1.176474
  O       1.903247      0.703517      2.217290
  H       2.788649      0.598883      1.901339
  O      -1.028697      1.896499      0.639130
  H      -1.941614      1.973030      0.863947
  O      -0.511593     -0.955645      2.713201
  C      -1.078540     -2.199261      3.023861
  H      -1.194565     -2.800584      2.120100
  H      -0.351721     -2.705320      3.657785
  C      -2.399456     -2.072584      3.763322
  H      -3.170887     -1.604060      3.149500
  H      -2.762877     -3.061489      4.050401
  H      -2.273095     -1.476244      4.668141
  C       0.864621     -1.976815     -1.140530
  H       1.908598     -2.114668     -1.421128
  H       0.425616     -2.957201     -0.955105
  H       0.327248     -1.518130     -1.972966
29
Coordinates from ORCA-job 1 Relaxed Surface Scan Step 11
  C       0.717849     -1.093578      0.144024
  C       1.313334      0.294728     -0.086020
  C       1.140637      1.168198      1.154137
  C      -0.312802      1.163028      1.617287
  C      -0.920523     -0.242271      1.653694
  H       1.268769     -1.561990      0.959408
  H       1.387061      2.198549      0.883899
  H      -0.354964      1.580256      2.624617
  H      -2.009334     -0.145992      1.654506
  H       0.786795      0.771269     -0.915997
  O      -0.637336     -0.958912      0.503266
  O       2.692804      0.224545     -0.334298
  H       2.865330     -0.000203     -1.233447
  O       1.955415      0.726359      2.188802
  H       2.832835      0.622171      1.851550
  O      -1.007652      1.956889      0.697855
  H      -1.904294      2.071682      0.967426
  O      -0.484898     -0.869053      2.797424
  C      -0.959235     -2.152976      3.097061
  H      -0.798219     -2.825623      2.252259
  H      -0.330673     -2.503028      3.914029
  C      -2.416344     -2.180112      3.527935
  H      -3.094103     -1.916865      2.714652
  H      -2.681981     -3.184941      3.862230
  H      -2.583887     -1.488654      4.355552
  C       0.768419     -1.985421     -1.080761
  H       1.799316     -2.170620     -1.385453
  H       0.304663     -2.947139     -0.861822
  H       0.225587     -1.529973     -1.911329
29
Coordinates from ORCA-job 1 Relaxed Surface Scan Step 12
  C       0.674105     -1.094581      0.187180
  C       1.285018      0.279492     -0.083821
  C       1.161555      1.175731      1.145734
  C      -0.279126      1.205440      1.645899
  C      -0.912561     -0.186676      1.722567
  H       1.242212     -1.557145      0.993988
  H       1.419881      2.196829      0.852532
  H      -0.287792      1.640031      2.646703
  H      -1.998655     -0.066683      1.743121
  H       0.743880      0.751200     -0.907076
  O      -0.668010     -0.934018      0.582961
  O       2.655663      0.180420     -0.368665
  H       2.799547     -0.057520     -1.269455
  O       1.994763      0.734436      2.165876
  H       2.860672      0.606974      1.807452
  O      -0.982409      1.997001      0.730864
  H      -1.871623      2.127412      1.017458
  O      -0.470426     -0.796404      2.873135
  C      -0.886419     -2.101872      3.166970
  H      -0.510759     -2.798372      2.414233
  H      -0.392512     -2.345971      4.105760
  C      -2.389468     -2.260083      3.322941
  H      -2.917542     -2.126918      2.378046
  H      -2.613443     -3.265268      3.685203
  H      -2.781554     -1.542630      4.046509
  C       0.675292     -2.008321     -1.022420
  H       1.693784     -2.214872     -1.353828
  H       0.203471     -2.958596     -0.772850
  H       0.115026     -1.558717     -1.844528
29
Coordinates from ORCA-job 1 Relaxed Surface Scan Step 13
  C       0.636861     -1.097308      0.206690
  C       1.272738      0.263635     -0.074250
  C       1.169802      1.174124      1.146823
  C      -0.267516      1.232305      1.653781
  C      -0.916592     -0.150387      1.758141
  H       1.208744     -1.572164      1.002245
  H       1.442727      2.187716      0.840766
  H      -0.264957      1.683654      2.647177
  H      -2.001163     -0.018540      1.789757
  H       0.740911      0.739587     -0.901106
  O      -0.695205     -0.916267      0.625947
  O       2.641243      0.133878     -0.359018
  H       2.779889     -0.110984     -1.258777
  O       2.001802      0.730707      2.166787
  H       2.863780      0.587682      1.804827
  O      -0.965349      2.017180      0.729165
  H      -1.851788      2.162265      1.017353
  O      -0.468774     -0.743699      2.915055
  C      -0.843188     -2.059493      3.219571
  H      -0.332103     -2.760101      2.554927
  H      -0.452830     -2.233028      4.220952
  C      -2.340537     -2.314062      3.202696
  H      -2.755162     -2.245060      2.196690
  H      -2.540970     -3.320357      3.575361
  H      -2.863400     -1.604513      3.847347
  C       0.601219     -2.010092     -1.003190
  H       1.610156     -2.234268     -1.352100
  H       0.117116     -2.952030     -0.745724
  H       0.035117     -1.550058     -1.815405
29
Coordinates from ORCA-job 1 Relaxed Surface Scan Step 14
  C       0.601142     -1.099599      0.215203
  C       1.268552      0.247387     -0.061919
  C       1.174370      1.168718      1.152084
  C      -0.264041      1.253729      1.652511
  C      -0.927287     -0.120272      1.777083
  H       1.168493     -1.594728      0.999773
  H       1.464218      2.175319      0.838206
  H      -0.259354      1.720791      2.638573
  H      -2.010812      0.020255      1.815147
  H       0.758018      0.731676     -0.897246
  O      -0.722411     -0.898466      0.650062
  O       2.637458      0.083516     -0.330169
  H       2.781215     -0.162444     -1.228822
  O       1.996147      0.721653      2.178390
  H       2.856594      0.561791      1.819927
  O      -0.948877      2.031830      0.712858
  H      -1.835450      2.189563      0.993964
  O      -0.475721     -0.698467      2.940181
  C      -0.811985     -2.020489      3.263288
  H      -0.198426     -2.712892      2.681383
  H      -0.507575     -2.136143      4.302389
  C      -2.285118     -2.361724      3.123528
  H      -2.612837     -2.334502      2.084458
  H      -2.458970     -3.370431      3.503039
  H      -2.901856     -1.673109      3.704900
  C       0.535227     -2.001356     -1.001827
  H       1.535975     -2.240770     -1.364124
  H       0.037077     -2.936572     -0.746711
  H      -0.031194     -1.523942     -1.803641
29
Coordinates from ORCA-job 1 Relaxed Surface Scan Step 15
  C       0.562992     -1.100790      0.220475
  C       1.267506      0.229435     -0.047104
  C       1.177733      1.160870      1.160072
  C      -0.263665      1.275630      1.646659
  C      -0.944612     -0.087865      1.787260
  H       1.118739     -1.619338      0.996291
  H       1.487432      2.159872      0.840485
  H      -0.260068      1.757503      2.625578
  H      -2.027022      0.062905      1.827931
  H       0.784749      0.723538     -0.893085
  O      -0.753272     -0.875570      0.664177
  O       2.636487      0.027648     -0.291327
  H       2.789606     -0.218150     -1.188475
  O       1.983676      0.708528      2.196265
  H       2.843535      0.530479      1.845089
  O      -0.928981      2.048797      0.689444
  H      -1.816700      2.220156      0.958794
  O      -0.494368     -0.652301      2.957934
  C      -0.784986     -1.981382      3.298307
  H      -0.082811     -2.649227      2.792721
  H      -0.556325     -2.049303      4.361069
  C      -2.221411     -2.413198      3.062048
  H      -2.475931     -2.418630      2.002868
  H      -2.362086     -3.424353      3.448801
  H      -2.916824     -1.754729      3.586880
  C       0.470611     -1.988541     -1.005193
  H       1.464054     -2.245527     -1.375661
  H      -0.045986     -2.915556     -0.756990
  H      -0.089504     -1.490581     -1.798823
29
Coordinates from ORCA-job 1 Relaxed Surface Scan Step 16
  C       0.521674     -1.101244      0.225289
  C       1.267310      0.209257     -0.029679
  C       1.180956      1.150736      1.170540
  C      -0.264336      1.298660      1.638010
  C      -0.967332     -0.052275      1.791598
  H       1.061640     -1.644951      0.993496
  H       1.514519      2.140944      0.847195
  H      -0.263826      1.795907      2.609168
  H      -2.048213      0.111765      1.830427
  H       0.817755      0.713768     -0.887574
  O      -0.787379     -0.849488      0.673498
  O       2.634996     -0.035726     -0.245364
  H       2.800683     -0.275530     -1.141880
  O       1.965920      0.690701      2.219084
  H       2.825204      0.491266      1.878193
  O      -0.904468      2.067824      0.660817
  H      -1.794461      2.252672      0.913276
  O      -0.524180     -0.603971      2.971589
  C      -0.761060     -1.940388      3.327078
  H       0.021061     -2.567699      2.891977
  H      -0.603555     -1.969671      4.404642
  C      -2.148940     -2.468183      3.010170
  H      -2.339395     -2.501800      1.938695
  H      -2.246792     -3.480853      3.406367
  H      -2.915567     -1.850378      3.482692
  C       0.405297     -1.972187     -1.010629
  H       1.391627     -2.245508     -1.388491
  H      -0.129820     -2.891195     -0.772101
  H      -0.146751     -1.452131     -1.795596
29
Coordinates from ORCA-job 1 Relaxed Surface Scan Step 17
  C       0.475537     -1.103980      0.233753
  C       1.266033      0.182739     -0.006130
  C       1.185087      1.129325      1.190122
  C      -0.265200      1.326592      1.623337
  C      -1.006755     -0.002427      1.785188
  H       0.998155     -1.674913      0.993528
  H       1.559389      2.106918      0.872795
  H      -0.272907      1.840121      2.585813
  H      -2.084433      0.186888      1.797907
  H       0.853624      0.700321     -0.874390
  O      -0.826320     -0.822982      0.684859
  O       2.628904     -0.113446     -0.193238
  H       2.814219     -0.306508     -1.097074
  O       1.931547      0.644291      2.255549
  H       2.792166      0.420597      1.933470
  O      -0.860122      2.097038      0.618759
  H      -1.754912      2.298077      0.840194
  O      -0.607156     -0.533416      2.992469
  C      -0.738401     -1.886001      3.341364
  H       0.120105     -2.433906      2.945837
  H      -0.624573     -1.898356      4.424735
  C      -2.059704     -2.536414      2.972662
  H      -2.205493     -2.588821      1.895553
  H      -2.085197     -3.552160      3.372680
  H      -2.894042     -1.984464      3.410720
  C       0.335254     -1.955042     -1.013656
  H       1.314487     -2.241105     -1.400105
  H      -0.216827     -2.866924     -0.786692
  H      -0.209893     -1.411721     -1.787522
29
Coordinates from ORCA-job 1 Relaxed Surface Scan Step 18
  C       0.436219     -1.110783      0.240093
  C       1.260595      0.157681      0.020396
  C       1.188257      1.079977      1.232369
  C      -0.265545      1.354756      1.598919
  C      -1.077737      0.066032      1.748047
  H       0.954988     -1.710671      0.982100
  H       1.643294      2.036800      0.961475
  H      -0.293959      1.881639      2.553468
  H      -2.140730      0.310360      1.667928
  H       0.873169      0.700194     -0.843394
  O      -0.860453     -0.812246      0.701220
  O       2.615315     -0.176528     -0.156612
  H       2.811388     -0.334558     -1.064917
  O       1.845340      0.513768      2.318507
  H       2.715479      0.268264      2.040462
  O      -0.775795      2.139581      0.558909
  H      -1.665232      2.395184      0.742745
  O      -0.832238     -0.428828      3.016771
  C      -0.727458     -1.789314      3.333987
  H       0.195796     -2.187354      2.910669
  H      -0.590203     -1.800913      4.414322
  C      -1.941038     -2.628879      2.976473
  H      -2.097308     -2.684762      1.901020
  H      -1.809730     -3.643497      3.359289
  H      -2.838669     -2.209777      3.435911
  C       0.269011     -1.933464     -1.023204
  H       1.239866     -2.231747     -1.421373
  H      -0.300933     -2.837825     -0.811062
  H      -0.269119     -1.362770     -1.782032
29
Coordinates from ORCA-job 1 Relaxed Surface Scan Step 19
  C       0.403888     -1.115240      0.231479
  C       1.253708      0.140327      0.038422
  C       1.186664      1.031057      1.271293
  C      -0.263217      1.364859      1.588357
  C      -1.142833      0.114607      1.694239
  H       0.914494     -1.736755      0.964291
  H       1.703994      1.968044      1.049134
  H      -0.306740      1.881130      2.547979
  H      -2.178181      0.419237      1.526077
  H       0.881785      0.710684     -0.813988
  O      -0.893272     -0.802670      0.688260
  O       2.601405     -0.213809     -0.137610
  H       2.791052     -0.394132     -1.043194
  O       1.762743      0.396459      2.367779
  H       2.636533      0.124460      2.128164
  O      -0.699847      2.184080      0.540825
  H      -1.572713      2.499625      0.710595
  O      -1.068121     -0.373651      2.990226
  C      -0.737419     -1.692649      3.325968
  H       0.219814     -1.963778      2.884622
  H      -0.577900     -1.665257      4.403045
  C      -1.823936     -2.702656      3.002882
  H      -1.996651     -2.779360      1.930728
  H      -1.539712     -3.688351      3.379143
  H      -2.760860     -2.413950      3.483165
  C       0.228035     -1.914193     -1.046044
  H       1.194735     -2.232119     -1.439545
  H      -0.366794     -2.806470     -0.852362
  H      -0.288086     -1.319208     -1.801441
29
Coordinates from ORCA-job 1 Relaxed Surface Scan Step 20
  C       0.364833     -1.115611      0.220749
  C       1.241732      0.123866      0.047711
  C       1.187309      0.993401      1.295339
  C      -0.254728      1.364150      1.599526
  C      -1.194813      0.150605      1.646103
  H       0.851527     -1.747668      0.962699
  H       1.736753      1.917325      1.099434
  H      -0.298531      1.851732      2.574070
  H      -2.197609      0.516927      1.422162
  H       0.882319      0.716135     -0.795222
  O      -0.935154     -0.775045      0.649483
  O       2.582206     -0.251108     -0.130398
  H       2.761430     -0.458834     -1.032314
  O       1.725806      0.322343      2.390368
  H       2.594511      0.025299      2.161902
  O      -0.640491      2.233587      0.571835
  H      -1.501840      2.580593      0.739010
  O      -1.265840     -0.361870      2.932324
  C      -0.763336     -1.610773      3.324709
  H       0.226683     -1.779317      2.909954
  H      -0.633594     -1.532482      4.403610
  C      -1.709376     -2.755297      3.009521
  H      -1.846027     -2.876023      1.935850
  H      -1.316486     -3.689915      3.417506
  H      -2.686392     -2.571268      3.459818
  C       0.197843     -1.909561     -1.061189
  H       1.164110     -2.253495     -1.433358
  H      -0.424416     -2.785708     -0.881029
  H      -0.285862     -1.301666     -1.827687
29
Coordinates from ORCA-job 1 Relaxed Surface Scan Step 21
  C       0.318094     -1.117400      0.208643
  C       1.223698      0.102444      0.049585
  C       1.190746      0.954842      1.309595
  C      -0.242016      1.349751      1.630163
  C      -1.245397      0.180643      1.596764
  H       0.765652     -1.752864      0.973449
  H       1.751999      1.873184      1.124061
  H      -0.274032      1.785252      2.629820
  H      -2.208052      0.615448      1.330563
  H       0.870861      0.713324     -0.783367
  O      -0.983844     -0.733593      0.588461
  O       2.556065     -0.292690     -0.138115
  H       2.720983     -0.520774     -1.037912
  O       1.729903      0.262776      2.391746
  H       2.589800     -0.049396      2.149941
  O      -0.585966      2.291285      0.651143
  H      -1.436042      2.659316      0.830507
  O      -1.458910     -0.373144      2.846188
  C      -0.814538     -1.523054      3.331480
  H       0.215209     -1.572993      2.991094
  H      -0.775932     -1.395705      4.413300
  C      -1.578918     -2.791022      2.997531
  H      -1.623759     -2.957411      1.921991
  H      -1.098708     -3.654499      3.464623
  H      -2.601436     -2.724204      3.372486
  C       0.171179     -1.922159     -1.069017
  H       1.137461     -2.304192     -1.401736
  H      -0.487185     -2.773791     -0.900521
  H      -0.264347     -1.309051     -1.859978
29
Coordinates from ORCA-job 1 Relaxed Surface Scan Step 22
  C       0.260600     -1.119028      0.185081