30
Coordinates from ORCA-job 10 Relaxed Surface Scan Step 1
  C      -1.040833      0.823311      0.589458
  C      -0.507396      0.904418      2.010169
  C      -1.197088     -0.128886      2.886904
  C      -2.708178      0.053330      2.793102
  C      -3.085992     -0.032740      1.306780
  H      -0.786105     -0.160765      0.155984
  H      -0.954341     -1.120058      2.481463
  H      -3.192502     -0.767246      3.334166
  H      -2.737225     -1.005961      0.938724
  H      -0.736154      1.899014      2.394630
  O      -2.424236      0.965372      0.582028
  O      -0.779615     -0.045537      4.204706
  H       0.164368      0.011700      4.214264
  O       0.864134      0.646879      2.047472
  H       1.318045      1.324228      1.569260
  O      -0.462158      1.822203     -0.141949
  O      -3.036357      1.281955      3.341558
  H      -3.958446      1.436378      3.198127
  C      -0.734399      1.836495     -1.510617
  H      -1.785120      2.049733     -1.704350
  H      -0.474376      0.879612     -1.973787
  H      -0.123543      2.618330     -1.955257
  C      -4.581755      0.014252      0.997348
  H      -4.712630      0.546928      0.051736
  H      -4.941564     -1.010887      0.863933
  O      -5.324708      0.622268      2.007235
  C      -6.701478      0.456708      1.896829
  H      -7.169276      0.969476      2.733935
  H      -7.082461      0.885338      0.965072
  H      -6.977213     -0.601685      1.932722
30
Coordinates from ORCA-job 10 Relaxed Surface Scan Step 2
  C      -1.063053      0.838558      0.605013
  C      -0.521658      0.902134      2.023718
  C      -1.171277     -0.174694      2.878415
  C      -2.687009     -0.029661      2.799045
  C      -3.075718     -0.097009      1.313508
  H      -0.776805     -0.126571      0.150659
  H      -0.903228     -1.147809      2.446004
  H      -3.147164     -0.873407      3.327126
  H      -2.710452     -1.055880      0.922138
  H      -0.777980      1.878352      2.436184
  O      -2.451414      0.934076      0.604907
  O      -0.746330     -0.112537      4.194945
  H       0.195165     -0.022796      4.199671
  O       0.857558      0.686961      2.042754
  H       1.285623      1.390239      1.578306
  O      -0.522010      1.872189     -0.105953
  O      -3.038829      1.178946      3.377486
  H      -3.935513      1.377023      3.149441
  C      -0.803551      1.909151     -1.472505
  H      -1.862797      2.087036     -1.654701
  H      -0.510449      0.974195     -1.960063
  H      -0.225439      2.724066     -1.901186
  C      -4.568750     -0.101744      1.027408
  H      -4.715606      0.181149     -0.020062
  H      -4.935623     -1.125601      1.158868
  O      -5.279379      0.750295      1.867988
  C      -6.662123      0.611128      1.811078
  H      -7.099808      1.324401      2.505390
  H      -7.042994      0.820165      0.806976
  H      -6.971985     -0.398190      2.099090
30
Coordinates from ORCA-job 10 Relaxed Surface Scan Step 3
  C      -1.088893      0.838954      0.619455
  C      -0.535457      0.904612      2.033291
  C      -1.131414     -0.209080      2.879073
  C      -2.652156     -0.114326      2.824113
  C      -3.063213     -0.185786      1.344657
  H      -0.756111     -0.099482      0.144896
  H      -0.835862     -1.165383      2.427293
  H      -3.075296     -0.977770      3.351610
  H      -2.689645     -1.138364      0.945124
  H      -0.825731      1.863392      2.463221
  O      -2.480237      0.865109      0.629769
  O      -0.689566     -0.152106      4.190195
  H       0.247393     -0.023451      4.183141
  O       0.851644      0.745662      2.033250
  H       1.245452      1.475006      1.578844
  O      -0.607849      1.911650     -0.077229
  O      -3.035371      1.075827      3.421959
  H      -3.913274      1.294716      3.144430
  C      -0.903208      1.957778     -1.440556
  H      -1.971830      2.083491     -1.610920
  H      -0.566504      1.047971     -1.947180
  H      -0.371950      2.808972     -1.859264
  C      -4.557846     -0.208703      1.085579
  H      -4.720768     -0.078723      0.010431
  H      -4.940858     -1.195624      1.369925
  O      -5.226089      0.778419      1.802419
  C      -6.611207      0.763515      1.684730
  H      -7.007417      1.575909      2.289060
  H      -6.923524      0.913158      0.646939
  H      -7.031814     -0.181178      2.043391
30
Coordinates from ORCA-job 10 Relaxed Surface Scan Step 4
  C      -1.122076      0.833219      0.634016
  C      -0.549539      0.905458      2.039849
  C      -1.087346     -0.237929      2.884203
  C      -2.611246     -0.194001      2.862462
  C      -3.052600     -0.277028      1.393127
  H      -0.744737     -0.073506      0.135246
  H      -0.769238     -1.178937      2.415632
  H      -2.992936     -1.073778      3.394440
  H      -2.676120     -1.226481      0.989053
  H      -0.869866      1.847582      2.484694
  O      -2.512163      0.786291      0.661721
  O      -0.620075     -0.179461      4.186412
  H       0.310679     -0.013344      4.161523
  O       0.842768      0.802454      2.015154
  H       1.199791      1.555106      1.568470
  O      -0.709977      1.943273     -0.049573
  O      -3.023951      0.978292      3.477157
  H      -3.888449      1.210302      3.169200
  C      -1.026915      1.996872     -1.407627
  H      -2.103124      2.067199     -1.561442
  H      -0.648881      1.115641     -1.935266
  H      -0.548562      2.882812     -1.818050
  C      -4.551629     -0.305861      1.166227
  H      -4.732557     -0.285082      0.087538
  H      -4.950219     -1.249413      1.557320
  O      -5.177166      0.772037      1.783211
  C      -6.536485      0.907703      1.526537
  H      -6.894455      1.777992      2.071191
  H      -6.724569      1.058370      0.459477
  H      -7.096957      0.028380      1.859744
30
Coordinates from ORCA-job 10 Relaxed Surface Scan Step 5
  C      -1.169094      0.824797      0.649507
  C      -0.569329      0.906393      2.043336
  C      -1.043716     -0.261982      2.890750
  C      -2.568305     -0.269247      2.911473
  C      -3.047913     -0.367778      1.456476
  H      -0.753015     -0.047335      0.123204
  H      -0.707375     -1.188220      2.405485
  H      -2.904305     -1.162659      3.451166
  H      -2.671027     -1.314595      1.047325
  H      -0.915680      1.831685      2.503525
  O      -2.553558      0.704442      0.703027
  O      -0.543065     -0.197627      4.180209
  H       0.379616      0.004454      4.131708
  O       0.825184      0.858985      1.986833
  H       1.142660      1.632749      1.546481
  O      -0.832595      1.968130     -0.022187
  O      -3.007158      0.885048      3.543383
  H      -3.862717      1.126228      3.217353
  C      -1.177860      2.026069     -1.372902
  H      -2.259084      2.038819     -1.506096
  H      -0.761968      1.175978     -1.922737
  H      -0.757315      2.943821     -1.776752
  C      -4.553100     -0.400308      1.269485
  H      -4.755029     -0.453083      0.198250
  H      -4.958192     -1.306534      1.734101
  O      -5.147039      0.733853      1.814101
  C      -6.416615      1.048357      1.341731
  H      -6.751755      1.944263      1.858659
  H      -6.398810      1.247379      0.266559
  H      -7.130441      0.242085      1.538193
30
Coordinates from ORCA-job 10 Relaxed Surface Scan Step 6
  C      -1.370501      0.819266      0.648651
  C      -0.741086      0.983382      2.021199
  C      -1.059634     -0.224069      2.886666
  C      -2.571616     -0.396423      2.962019
  C      -3.104329     -0.540739      1.528675
  H      -0.888440     -0.020337      0.127006
  H      -0.644861     -1.110678      2.388375
  H      -2.787354     -1.322520      3.507996
  H      -2.667808     -1.453407      1.100708
  H      -1.170451      1.870744      2.486670
  O      -2.735408      0.566566      0.749505
  O      -0.523007     -0.102913      4.156993
  H       0.373310      0.187810      4.075543
  O       0.647610      1.084358      1.920172
  H       0.867669      1.882902      1.464880
  O      -1.169812      1.975512     -0.054242
  O      -3.106034      0.703269      3.618075
  H      -4.036172      0.751733      3.448608
  C      -1.509491      1.953161     -1.407719
  H      -2.580140      1.805548     -1.547541
  H      -0.970393      1.160800     -1.935798
  H      -1.224060      2.913189     -1.830663
  C      -4.614125     -0.703340      1.428750
  H      -4.881906     -0.808102      0.375695
  H      -4.896986     -1.624052      1.940627
  O      -5.343216      0.332756      2.010630
  C      -5.705701      1.407465      1.190497
  H      -6.366478      2.047086      1.771554
  H      -4.837719      1.979780      0.868292
  H      -6.250462      1.055420      0.309819
30
Coordinates from ORCA-job 10 Relaxed Surface Scan Step 7
  C      -1.392885      0.824388      0.683374
  C      -0.741024      0.948132      2.049021
  C      -1.011417     -0.298118      2.871790
  C      -2.519114     -0.474681      3.000985
  C      -3.109211     -0.615931      1.592344
  H      -0.855321      0.072918      0.095126
  H      -0.613346     -1.162392      2.322106
  H      -2.712493     -1.405031      3.546717
  H      -2.750085     -1.559499      1.163977
  H      -1.181314      1.802939      2.561398
  O      -2.735617      0.467655      0.776719
  O      -0.426191     -0.224935      4.124322
  H       0.458686      0.093084      4.022215
  O       0.641792      1.093871      1.920112
  H       0.830034      1.930341      1.522588
  O      -1.293841      2.038232      0.055696
  O      -3.040651      0.609518      3.696399
  H      -3.887437      0.856789      3.350684
  C      -1.605516      2.067641     -1.303693
  H      -2.650785      1.814219     -1.480617
  H      -0.973875      1.374810     -1.867917
  H      -1.420561      3.078511     -1.658766
  C      -4.636207     -0.644218      1.577377
  H      -4.981381     -0.906858      0.584000
  H      -4.987107     -1.410231      2.270849
  O      -5.210049      0.574153      1.940733
  C      -5.666029      1.389877      0.895221
  H      -6.131313      2.262585      1.347881
  H      -4.848519      1.710124      0.253175
  H      -6.417825      0.866270      0.297830
30
Coordinates from ORCA-job 10 Relaxed Surface Scan Step 8
  C      -1.416120      0.821184      0.698703
  C      -0.774485      0.932747      2.069344
  C      -0.987312     -0.351587      2.843113
  C      -2.487223     -0.558912      3.004673
  C      -3.128729     -0.696641      1.618008
  H      -0.794922      0.171213      0.079198
  H      -0.587756     -1.183840      2.246102
  H      -2.647124     -1.497211      3.543152
  H      -2.867285     -1.676529      1.206173
  H      -1.250844      1.748103      2.612753
  O      -2.719214      0.329078      0.740986
  O      -0.372200     -0.318512      4.082460
  H       0.497344      0.037942      3.975488
  O       0.598493      1.153795      1.944146
  H       0.744057      2.017233      1.588630
  O      -1.430738      2.074672      0.140639
  O      -3.034786      0.481503      3.751025
  H      -3.698891      0.949674      3.263343
  C      -1.689918      2.148653     -1.227669
  H      -2.689825      1.787358     -1.467694
  H      -0.959301      1.568425     -1.799378
  H      -1.611987      3.193438     -1.518625
  C      -4.659556     -0.571636      1.708162
  H      -5.138805     -0.976314      0.829462
  H      -5.013316     -1.142780      2.567321
  O      -5.075546      0.751356      1.850009
  C      -5.564616      1.364112      0.687186
  H      -5.812369      2.392101      0.942001
  H      -4.822392      1.362358     -0.107441
  H      -6.473236      0.863180      0.340378
30
Coordinates from ORCA-job 10 Relaxed Surface Scan Step 9
  C      -1.450060      0.632075      0.612413
  C      -1.196073      1.020427      2.056004
  C      -1.041735     -0.253309      2.864201
  C      -2.372543     -1.016826      2.902886
  C      -3.081987     -0.986131      1.505623
  H      -0.481873      0.369900      0.181277
  H      -0.310133     -0.883866      2.344741
  H      -2.147692     -2.052360      3.149822
  H      -3.294408     -2.012140      1.210109
  H      -2.037728      1.603425      2.425785
  O      -2.249325     -0.496776      0.476945
  O      -0.618891      0.009876      4.156273
  H       0.109917      0.611083      4.107742
  O      -0.012029      1.755165      2.163543
  H      -0.131011      2.605639      1.769463
  O      -1.950307      1.725892     -0.060797
  O      -3.209858     -0.583565      3.922050
  H      -3.342633      0.351406      3.877007
  C      -1.957072      1.635350     -1.452179
  H      -2.599791      0.824680     -1.797301
  H      -0.947980      1.471007     -1.842473
  H      -2.332385      2.579070     -1.841837
  C      -4.428614     -0.269015      1.545303
  H      -4.924960     -0.401627      0.591450
  H      -5.053330     -0.736306      2.306713
  O      -4.288214      1.094047      1.807923
  C      -4.991797      1.959670      0.970434
  H      -4.715271      2.977026      1.237354
  H      -4.737941      1.794882     -0.077207
  H      -6.072879      1.845466      1.098380
30
Coordinates from ORCA-job 10 Relaxed Surface Scan Step 10
  C      -1.530127      0.658842      0.614269
  C      -1.297980      1.049253      2.059182
  C      -1.060998     -0.227251      2.829321
  C      -2.338128     -1.084836      2.841696
  C      -3.194647     -0.897555      1.550035
  H      -0.576426      0.305791      0.211708
  H      -0.270483     -0.787854      2.320112
  H      -2.022402     -2.131671      2.877126
  H      -3.490213     -1.892375      1.222186
  H      -2.179643      1.557008      2.444942
  O      -2.433919     -0.390184      0.473646
  O      -0.681910      0.017315      4.147047
  H      -0.063631      0.734375      4.157005
  O      -0.161756      1.852185      2.178594
  H      -0.306984      2.665252      1.718532
  O      -1.911283      1.780332     -0.087265
  O      -3.114264     -0.800531      3.956254
  H      -2.535062     -0.590384      4.675691
  C      -1.861353      1.678686     -1.477144
  H      -2.518244      0.889217     -1.843772
  H      -0.842546      1.475607     -1.821409
  H      -2.185785      2.631760     -1.888730
  C      -4.508090     -0.124794      1.741074
  H      -5.184074     -0.407785      0.937287
  H      -4.964068     -0.444099      2.674085
  O      -4.353164      1.257453      1.746727
  C      -4.951192      1.948539      0.696912
  H      -4.651327      2.991270      0.771591
  H      -4.635452      1.566337     -0.274110
  H      -6.043450      1.894262      0.759054
30
Coordinates from ORCA-job 10 Relaxed Surface Scan Step 11
  C      -1.564577      0.691694      0.641294
  C      -1.304208      1.042644      2.091615
  C      -1.052005     -0.263153      2.809191
  C      -2.335231     -1.109898      2.835273
  C      -3.232404     -0.855449      1.579282
  H      -0.617680      0.337283      0.225094
  H      -0.285658     -0.808050      2.249186
  H      -2.034902     -2.161403      2.817320
  H      -3.569859     -1.830808      1.236623
  H      -2.172446      1.547499      2.512042
  O      -2.477437     -0.351319      0.497717
  O      -0.621033     -0.071889      4.119665
  H       0.007765      0.636002      4.131404
  O      -0.159816      1.833597      2.210888
  H      -0.318933      2.673614      1.807402
  O      -1.936244      1.826771     -0.040061
  O      -3.061924     -0.862897      3.991928
  H      -2.450173     -0.687958      4.693780
  C      -1.857405      1.756613     -1.430270
  H      -2.501923      0.972491     -1.829262
  H      -0.830695      1.566478     -1.758120
  H      -2.178424      2.716966     -1.827354
  C      -4.510762     -0.028731      1.850484
  H      -5.312354     -0.401127      1.216735
  H      -4.820263     -0.191581      2.876796
  O      -4.352523      1.335811      1.637703
  C      -4.958140      1.850103      0.495327
  H      -4.648499      2.887138      0.392147
  H      -4.661001      1.307174     -0.402732
  H      -6.049849      1.816550      0.580550
30
Coordinates from ORCA-job 10 Relaxed Surface Scan Step 12
  C      -1.528450      0.645815      0.531889
  C      -1.288629      1.147165      1.945985
  C      -1.259454      0.001141      2.947665
  C      -2.130541     -1.172021      2.469549
  C      -3.260581     -0.742237      1.522719
  H      -0.688829      0.008960      0.224047
  H      -0.226603     -0.344077      3.036379
  H      -1.486012     -1.819789      1.871758
  H      -3.690703     -1.667570      1.142137
  H      -2.126085      1.793322      2.198034
  O      -2.714515     -0.075753      0.410076
  O      -1.726496      0.406772      4.203845
  H      -1.187020      1.107501      4.537518
  O      -0.078261      1.834537      2.029364
  H      -0.104380      2.562990      1.426674
  O      -1.572461      1.750058     -0.284112
  O      -2.624070     -1.922948      3.524203
  H      -2.598239     -1.398133      4.312051
  C      -1.580187      1.508309     -1.658821
  H      -2.477723      0.970614     -1.963348
  H      -0.701977      0.930046     -1.961282
  H      -1.554099      2.473180     -2.159662
  C      -4.408754      0.058828      2.188964
  H      -5.367546     -0.326445      1.835995
  H      -4.383378     -0.113143      3.262378
  O      -4.350887      1.429922      1.978977
  C      -5.047584      1.919640      0.877492
  H      -4.860110      2.989969      0.818998
  H      -4.719763      1.455481     -0.052326
  H      -6.125265      1.762032      0.994500
30
Coordinates from ORCA-job 10 Relaxed Surface Scan Step 13
  C      -1.518573      0.654871      0.545779
  C      -1.274583      1.121721      1.970280
  C      -1.233152     -0.049538      2.939971
  C      -2.158860     -1.186923      2.470286
  C      -3.275375     -0.699699      1.537105
  H      -0.687457      0.017353      0.215598
  H      -0.207064     -0.423392      2.975049
  H      -1.549823     -1.862410      1.865966
  H      -3.753005     -1.598394      1.151080
  H      -2.115799      1.758608      2.237122
  O      -2.707234     -0.060269      0.420429
  O      -1.630966      0.342211      4.224256
  H      -1.051551      1.015985      4.546942
  O      -0.070064      1.815161      2.072850
  H      -0.099472      2.557648      1.487557
  O      -1.559283      1.777344     -0.244806
  O      -2.680750     -1.914130      3.528212
  H      -2.597178     -1.405471      4.322535
  C      -1.577258      1.566744     -1.624281
  H      -2.478706      1.039180     -1.934919
  H      -0.703168      0.992543     -1.946059
  H      -1.551334      2.542509     -2.103526
  C      -4.369960      0.157093      2.235001
  H      -5.350482     -0.283182      2.034665
  H      -4.225430      0.118315      3.311699
  O      -4.368819      1.496029      1.871060
  C      -5.116797      1.838457      0.749259
  H      -4.971043      2.901463      0.568574
  H      -4.801713      1.286565     -0.136317
  H      -6.183706      1.657773      0.920277
30
Coordinates from ORCA-job 10 Relaxed Surface Scan Step 14
  C      -1.504726      0.663301      0.556064
  C      -1.256728      1.099311      1.988822
  C      -1.214941     -0.092774      2.931999
  C      -2.190848     -1.195876      2.473128
  C      -3.286898     -0.658498      1.545279
  H      -0.680328      0.026309      0.207834
  H      -0.198746     -0.494154      2.921945
  H      -1.614650     -1.901270      1.870754
  H      -3.807257     -1.529965      1.153095
  H      -2.095322      1.736029      2.267612
  O      -2.694854     -0.045955      0.425999
  O      -1.551991      0.287578      4.236716
  H      -0.940929      0.939681      4.545801
  O      -0.051692      1.787900      2.108664
  H      -0.077013      2.541414      1.537281
  O      -1.540181      1.801869     -0.211306
  O      -2.745856     -1.890256      3.536575
  H      -2.609119     -1.397503      4.333501
  C      -1.571855      1.619721     -1.594374
  H      -2.482542      1.110326     -1.908295
  H      -0.707922      1.040997     -1.935172
  H      -1.537190      2.604637     -2.053910
  C      -4.329951      0.247549      2.263658
  H      -5.313510     -0.228116      2.202231
  H      -4.082515      0.323287      3.319421
  O      -4.392728      1.544114      1.776164
  C      -5.185585      1.752907      0.653792
  H      -5.098380      2.802243      0.379617
  H      -4.866849      1.142980     -0.192090
  H      -6.237496      1.536380      0.870841
30
Coordinates from ORCA-job 10 Relaxed Surface Scan Step 15
  C      -1.484600      0.672337      0.563216
  C      -1.230032      1.082398      2.001538
  C      -1.204996     -0.125316      2.925412
  C      -2.222418     -1.195425      2.471101
  C      -3.296913     -0.613629      1.546531
  H      -0.671173      0.028035      0.202697
  H      -0.200671     -0.553929      2.887850
  H      -1.674160     -1.924584      1.870981
  H      -3.853038     -1.458129      1.144891
  H      -2.058672      1.729864      2.288130
  O      -2.683621     -0.018486      0.428791
  O      -1.501868      0.247048      4.241954
  H      -0.864075      0.875966      4.545352
  O      -0.016184      1.751574      2.135185
  H      -0.027032      2.511539      1.571775
  O      -1.502860      1.823319     -0.185894
  O      -2.805918     -1.862139      3.537243
  H      -2.635576     -1.381645      4.335183
  C      -1.555134      1.664453     -1.571111
  H      -2.483087      1.185534     -1.882166
  H      -0.711397      1.067785     -1.931239
  H      -1.498549      2.655396     -2.015198
  C      -4.293737      0.328945      2.282661
  H      -5.264493     -0.172640      2.348950
  H      -3.956231      0.501582      3.301364
  O      -4.432187      1.578587      1.700185
  C      -5.264341      1.663297      0.591214
  H      -5.250937      2.695481      0.247067
  H      -4.929617      1.019572     -0.223457
  H      -6.295086      1.397376      0.851441
30
Coordinates from ORCA-job 10 Relaxed Surface Scan Step 16
  C      -1.458534      0.681502      0.568404
  C      -1.192595      1.067727      2.010486
  C      -1.199048     -0.150848      2.920769
  C      -2.254520     -1.185810      2.466315
  C      -3.306358     -0.563031      1.543412
  H      -0.661194      0.022869      0.197943
  H      -0.209029     -0.609924      2.868263
  H      -1.732292     -1.934996      1.867719
  H      -3.891841     -1.382322      1.131231
  H      -2.003078      1.735727      2.303730
  O      -2.672437      0.020158      0.430335
  O      -1.469670      0.217931      4.243821
  H      -0.807008      0.820951      4.546683
  O       0.037738      1.703330      2.152934
  H       0.049457      2.467120      1.594604
  O      -1.450039      1.842609     -0.164713
  O      -2.864198     -1.828284      3.532960
  H      -2.669729     -1.358631      4.331873
  C      -1.529261      1.705907     -1.551032
  H      -2.480174      1.268825     -1.853808
  H      -0.715391      1.081508     -1.932400
  H      -1.439927      2.700215     -1.981944
  C      -4.264301      0.405602      2.292150
  H      -5.208340     -0.117429      2.476275
  H      -3.851671      0.664366      3.263798
  O      -4.489245      1.603760      1.634988
  C      -5.355192      1.567857      0.550290
  H      -5.433317      2.579359      0.156651
  H      -4.992752      0.912457     -0.243550
  H      -6.354653      1.235660      0.853457
30
Coordinates from ORCA-job 10 Relaxed Surface Scan Step 17
  C      -1.426571      0.690472      0.571828
  C      -1.141598      1.052978      2.015954
  C      -1.195710     -0.169839      2.919398
  C      -2.285584     -1.166205      2.458147
  C      -3.315407     -0.503901      1.538284
  H      -0.654088      0.009002      0.190156
  H      -0.222640     -0.663660      2.867278
  H      -1.787427     -1.929158      1.856500
  H      -3.923976     -1.299905      1.113504
  H      -1.924102      1.751382      2.315468
  O      -2.662990      0.074501      0.432666
  O      -1.456610      0.202436      4.243481
  H      -0.769355      0.773262      4.553811
  O       0.112430      1.639053      2.160957
  H       0.154978      2.403096      1.604359
  O      -1.380029      1.859744     -0.146729
  O      -2.916509     -1.793472      3.521616
  H      -2.711560     -1.330840      4.322068
  C      -1.493561      1.746582     -1.532929
  H      -2.472344      1.365197     -1.821227
  H      -0.721823      1.085043     -1.938558
  H      -1.359548      2.740691     -1.952499
  C      -4.244113      0.480789      2.294691
  H      -5.147747     -0.063678      2.587641
  H      -3.770482      0.822366      3.211258
  O      -4.567796      1.620461      1.578112
  C      -5.460396      1.463437      0.527049
  H      -5.647253      2.447854      0.102366
  H      -5.062655      0.816724     -0.257554
  H      -6.414137      1.049752      0.874550
30
Coordinates from ORCA-job 10 Relaxed Surface Scan Step 18
  C      -1.392291      0.699054      0.573394
  C      -1.081253      1.038134      2.018064
  C      -1.196046     -0.180681      2.922160
  C      -2.311301     -1.138637      2.443951
  C      -3.323355     -0.438332      1.532259
  H      -0.653464     -0.012205      0.179676
  H      -0.241218     -0.710170      2.889845
  H      -1.831766     -1.903512      1.829941
  H      -3.949195     -1.214216      1.094661
  H      -1.826084      1.774365      2.323696
  O      -2.656388      0.143347      0.436269
  O      -1.469522      0.203486      4.240734
  H      -0.760734      0.735529      4.570629
  O       0.200873      1.560612      2.157881
  H       0.279640      2.320821      1.599900
  O      -1.297782      1.872783     -0.133294
  O      -2.953837     -1.770022      3.497858
  H      -2.764004     -1.304766      4.300607
  C      -1.448493      1.783864     -1.517987
  H      -2.456189      1.470610     -1.787435
  H      -0.730471      1.078486     -1.947652
  H      -1.258870      2.772234     -1.929547
  C      -4.231568      0.554709      2.292362
  H      -5.084569     -0.008402      2.685094
  H      -3.710735      0.977097      3.147495
  O      -4.660442      1.628566      1.530540
  C      -5.573427      1.353858      0.522715
  H      -5.881270      2.302820      0.087752
  H      -5.141357      0.735065     -0.266809
  H      -6.463483      0.849667      0.916889
30
Coordinates from ORCA-job 10 Relaxed Surface Scan Step 19
  C      -1.360678      0.709448      0.573758
  C      -1.024507      1.027930      2.018072
  C      -1.201587     -0.182174      2.925233
  C      -2.330195     -1.107231      2.421103
  C      -3.330146     -0.372338      1.522550
  H      -0.660747     -0.036368      0.172968
  H      -0.263781     -0.741905      2.923105
  H      -1.860592     -1.862830      1.788420
  H      -3.967008     -1.131335      1.070631
  H      -1.729131      1.801298      2.328040
  O      -2.653809      0.225056      0.439937
  O      -1.502980      0.215502      4.234150
  H      -0.781371      0.710779      4.591918
  O       0.283333      1.483820      2.150421
  H       0.398971      2.235905      1.587799
  O      -1.210200      1.880459     -0.127679
  O      -2.977730     -1.759776      3.458624
  H      -2.817291     -1.291352      4.266011
  C      -1.389534      1.810290     -1.510428
  H      -2.419970      1.565214     -1.763354
  H      -0.726178      1.062419     -1.955734
  H      -1.142521      2.786895     -1.919585
  C      -4.225035      0.620383      2.288739
  H      -5.021227      0.042701      2.769687
  H      -3.668861      1.115643      3.079951
  O      -4.757226      1.627591      1.500569
  C      -5.685961      1.249646      0.542451
  H      -6.103283      2.157227      0.110311
  H      -5.234418      0.661548     -0.260023
  H      -6.504936      0.669720      0.984002
30
Coordinates from ORCA-job 10 Relaxed Surface Scan Step 20
  C      -1.330455      0.722913      0.573761
  C      -0.974043      1.023396      2.017780
  C      -1.211307     -0.176672      2.926271
  C      -2.344577     -1.073648      2.390267
  C      -3.334775     -0.306895      1.506303
  H      -0.672258     -0.059921      0.172557
  H      -0.289525     -0.761388      2.957294
  H      -1.878054     -1.814194      1.738061
  H      -3.977209     -1.051058      1.037233
  H      -1.639292      1.830261      2.330217
  O      -2.650335      0.316126      0.442518
  O      -1.548051      0.232404      4.223354
  H      -0.821780      0.695621      4.612845
  O       0.355075      1.414147      2.144523
  H       0.506871      2.154883      1.575410
  O      -1.118729      1.883611     -0.128306
  O      -2.996408     -1.754964      3.406059
  H      -2.869760     -1.287601      4.220083
  C      -1.315948      1.825768     -1.509622
  H      -2.362211      1.645757     -1.751455
  H      -0.704888      1.038268     -1.961290
  H      -1.012238      2.785387     -1.920762
  C      -4.222223      0.677759      2.282025
  H      -4.956750      0.088766      2.841054
  H      -3.641176      1.238287      3.009001
  O      -4.853426      1.618568      1.483680
  C      -5.800052      1.151117      0.584997
  H      -6.314125      2.014768      0.167243
  H      -5.347925      0.590070     -0.236764
  H      -6.543027      0.512628      1.077309
30
Coordinates from ORCA-job 10 Relaxed Surface Scan Step 21
  C      -1.295953      0.740315      0.573249
  C      -0.925737      1.023346      2.017963
  C      -1.224603     -0.166045      2.924177
  C      -2.356549     -1.036534      2.350053
  C      -3.335078     -0.238575      1.478712
  H      -0.683221     -0.081472      0.177222
  H      -0.319563     -0.773361      2.990759
  H      -1.887712     -1.759836      1.680741
  H      -3.977352     -0.968306      0.986743
  H      -1.552530      1.860762      2.330660
  O      -2.639109      0.417903      0.442066