30
Coordinates from ORCA-job 8 Relaxed Surface Scan Step 1
  C      -1.104912      0.508034      0.238310
  C      -0.470940      0.877755      1.567888
  C      -1.063354      0.030164      2.682206
  C      -2.581489      0.177131      2.673438
  C      -3.076219     -0.212533      1.269998
  H      -0.846223     -0.535605     -0.010144
  H      -0.823859     -1.019374      2.465303
  H      -3.005010     -0.518010      3.407982
  H      -2.753474     -1.244009      1.078526
  H      -0.698840      1.925162      1.767175
  O      -2.489248      0.619343      0.308039
  O      -0.551385      0.385149      3.919208
  H       0.388395      0.457845      3.841903
  O       0.906546      0.651251      1.546400
  H       1.303555      1.227152      0.910595
  O      -0.615257      1.352348     -0.718529
  O      -2.885529      1.491208      2.988164
  H      -3.806213      1.636563      2.826980
  C      -0.984681      1.087330     -2.037916
  H      -2.054079      1.232120     -2.187605
  H      -0.720823      0.064059     -2.322690
  H      -0.438283      1.779771     -2.673607
  C      -4.588592     -0.211712      1.076898
  H      -4.787276     -0.021196      0.017963
  H      -4.973678     -1.205462      1.328856
  O      -5.232526      0.738518      1.866052
  C      -6.621145      0.664110      1.858735
  H      -7.002467      1.448442      2.508216
  H      -7.023442      0.814603      0.852521
  H      -6.968687     -0.303878      2.232734
30
Coordinates from ORCA-job 8 Relaxed Surface Scan Step 2
  C      -1.121703      0.516881      0.248403
  C      -0.479474      0.877981      1.576693
  C      -1.042317      0.001906      2.684247
  C      -2.562382      0.125335      2.695444
  C      -3.067654     -0.255721      1.293493
  H      -0.841747     -0.515800     -0.020224
  H      -0.788459     -1.039863      2.447040
  H      -2.966307     -0.586750      3.425220
  H      -2.736652     -1.282499      1.088695
  H      -0.724315      1.917500      1.795560
  O      -2.507913      0.595656      0.333832
  O      -0.521138      0.344737      3.920724
  H       0.415981      0.437228      3.832892
  O       0.901697      0.677930      1.534840
  H       1.280336      1.273292      0.905802
  O      -0.662142      1.387842     -0.699263
  O      -2.883632      1.429753      3.033750
  H      -3.790826      1.589406      2.817611
  C      -1.042169      1.137448     -2.018578
  H      -2.116245      1.261131     -2.152546
  H      -0.759562      0.125287     -2.324305
  H      -0.518940      1.852588     -2.648596
  C      -4.578047     -0.279456      1.123527
  H      -4.795420     -0.249066      0.050945
  H      -4.957542     -1.225232      1.526141
  O      -5.202297      0.782620      1.771514
  C      -6.592171      0.748260      1.758278
  H      -6.954071      1.622289      2.294374
  H      -6.981311      0.776996      0.736186
  H      -6.972714     -0.151396      2.251901
30
Coordinates from ORCA-job 8 Relaxed Surface Scan Step 3
  C      -1.143151      0.521612      0.260812
  C      -0.489209      0.879622      1.584623
  C      -1.013840     -0.024268      2.688265
  C      -2.535202      0.071446      2.727363
  C      -3.057377     -0.308803      1.332146
  H      -0.834312     -0.495354     -0.031646
  H      -0.745730     -1.057479      2.429971
  H      -2.912535     -0.655716      3.456578
  H      -2.720077     -1.332314      1.119931
  H      -0.754359      1.909944      1.822061
  O      -2.529929      0.555737      0.366694
  O      -0.477009      0.307665      3.920888
  H       0.455883      0.423860      3.817439
  O       0.895464      0.713034      1.517425
  H       1.250034      1.328345      0.893594
  O      -0.726215      1.423302     -0.678032
  O      -2.877659      1.365397      3.086717
  H      -3.770978      1.536488      2.825312
  C      -1.119556      1.184194     -1.995554
  H      -2.199042      1.275818     -2.110242
  H      -0.810080      0.187105     -2.323997
  H      -0.629501      1.926671     -2.620613
  C      -4.567585     -0.346966      1.189090
  H      -4.804743     -0.452280      0.125569
  H      -4.945161     -1.232852      1.712791
  O      -5.165757      0.797667      1.706166
  C      -6.553171      0.833098      1.627435
  H      -6.889725      1.769349      2.066048
  H      -6.892927      0.789441      0.588434
  H      -7.005686      0.002519      2.178334
30
Coordinates from ORCA-job 8 Relaxed Surface Scan Step 4
  C      -1.171445      0.523118      0.275544
  C      -0.498955      0.879454      1.591048
  C      -0.979613     -0.048689      2.694193
  C      -2.500755      0.020804      2.769715
  C      -3.047137     -0.364279      1.386621
  H      -0.832857     -0.474313     -0.046137
  H      -0.701481     -1.073752      2.414657
  H      -2.847456     -0.717835      3.502404
  H      -2.705918     -1.385763      1.170629
  H      -0.782103      1.900460      1.846917
  O      -2.556107      0.507396      0.408528
  O      -0.418595      0.273130      3.918598
  H       0.508545      0.412370      3.793877
  O       0.887488      0.746362      1.491849
  H       1.214691      1.380918      0.872374
  O      -0.806550      1.457392     -0.653739
  O      -2.863236      1.304922      3.147037
  H      -3.744078      1.486164      2.851469
  C      -1.219895      1.230029     -1.967145
  H      -2.304169      1.285599     -2.057145
  H      -0.883110      0.251003     -2.322084
  H      -0.769759      2.001279     -2.587406
  C      -4.558618     -0.409702      1.276119
  H      -4.817035     -0.630967      0.236664
  H      -4.934337     -1.230305      1.898675
  O      -5.129210      0.795043      1.672267
  C      -6.498590      0.911691      1.463869
  H      -6.809198      1.890475      1.821232
  H      -6.745260      0.830293      0.401242
  H      -7.054393      0.143980      2.011726
30
Coordinates from ORCA-job 8 Relaxed Surface Scan Step 5
  C      -1.211115      0.523676      0.293504
  C      -0.510197      0.877460      1.595498
  C      -0.941943     -0.071725      2.700508
  C      -2.460693     -0.024122      2.822705
  C      -3.040126     -0.416046      1.457492
  H      -0.848447     -0.452689     -0.062051
  H      -0.660391     -1.089334      2.397928
  H      -2.773053     -0.770689      3.562422
  H      -2.697444     -1.435925      1.236750
  H      -0.806004      1.889573      1.871306
  O      -2.590334      0.459643      0.462869
  O      -0.346633      0.238357      3.911551
  H       0.573254      0.397297      3.759498
  O       0.875368      0.774283      1.455776
  H       1.173028      1.427139      0.840464
  O      -0.904701      1.489091     -0.625826
  O      -2.838895      1.251258      3.216982
  H      -3.708205      1.444202      2.895006
  C      -1.347064      1.273875     -1.931686
  H      -2.434731      1.293463     -1.990527
  H      -0.987363      0.314422     -2.316395
  H      -0.941329      2.072540     -2.547902
  C      -4.553935     -0.465577      1.388245
  H      -4.836306     -0.784295      0.382855
  H      -4.921608     -1.221670      2.091667
  O      -5.103171      0.778731      1.677864
  C      -6.415557      0.980498      1.265126
  H      -6.707966      1.984470      1.562985
  H      -6.504525      0.895229      0.178418
  H      -7.099047      0.263145      1.730567
30
Coordinates from ORCA-job 8 Relaxed Surface Scan Step 6
  C      -1.416124      0.521187      0.309076
  C      -0.680186      0.951618      1.566944
  C      -0.952132     -0.035299      2.689793
  C      -2.456658     -0.137261      2.905742
  C      -3.093948     -0.566512      1.576815
  H      -0.991591     -0.427427     -0.051752
  H      -0.593983     -1.020250      2.361357
  H      -2.646300     -0.918719      3.651063
  H      -2.693365     -1.557646      1.323268
  H      -1.057577      1.930995      1.861705
  O      -2.774328      0.342218      0.557859
  O      -0.316279      0.327622      3.864592
  H       0.575882      0.565647      3.659755
  O       0.697941      0.982871      1.347309
  H       0.895966      1.658802      0.716997
  O      -1.247777      1.493289     -0.638058
  O      -2.926003      1.092643      3.344677
  H      -3.864049      1.135276      3.223778
  C      -1.688938      1.194807     -1.928076
  H      -2.769651      1.057748     -1.957995
  H      -1.206101      0.290049     -2.309643
  H      -1.418306      2.032285     -2.566331
  C      -4.605926     -0.724405      1.626112
  H      -4.952725     -1.078658      0.652902
  H      -4.845256     -1.492570      2.362651
  O      -5.289709      0.431330      1.999362
  C      -5.716462      1.287987      0.978403
  H      -6.328777      2.059351      1.440367
  H      -4.877033      1.751598      0.463427
  H      -6.329738      0.747703      0.251502
30
Coordinates from ORCA-job 8 Relaxed Surface Scan Step 7
  C      -1.431076      0.557252      0.345751
  C      -0.644998      0.918073      1.597109
  C      -0.911432     -0.103483      2.688665
  C      -2.410775     -0.149407      2.951073
  C      -3.095176     -0.546841      1.641046
  H      -1.019377     -0.365695     -0.083567
  H      -0.611168     -1.088199      2.305748
  H      -2.605950     -0.929610      3.695426
  H      -2.733380     -1.548153      1.372607
  H      -0.983303      1.895086      1.941693
  O      -2.783111      0.364883      0.622944
  O      -0.215732      0.173349      3.852875
  H       0.674433      0.396453      3.623763
  O       0.725418      0.921193      1.330670
  H       0.923787      1.626801      0.733976
  O      -1.291009      1.580267     -0.551904
  O      -2.839584      1.088248      3.415108
  H      -3.729076      1.255424      3.135339
  C      -1.745967      1.343803     -1.849505
  H      -2.824963      1.192207     -1.873743
  H      -1.255766      0.467937     -2.285212
  H      -1.496931      2.217857     -2.446170
  C      -4.611589     -0.646066      1.746378
  H      -4.999227     -1.177041      0.878554
  H      -4.856444     -1.246048      2.624402
  O      -5.236190      0.590835      1.881723
  C      -5.773903      1.156814      0.719409
  H      -6.257002      2.087761      1.007482
  H      -5.002287      1.366505     -0.018694
  H      -6.527356      0.496072      0.280651
30
Coordinates from ORCA-job 8 Relaxed Surface Scan Step 8
  C      -1.447094      0.600150      0.382881
  C      -0.608549      0.885436      1.620528
  C      -0.881481     -0.164387      2.681228
  C      -2.374191     -0.161337      2.985309
  C      -3.108593     -0.504416      1.691233
  H      -1.075114     -0.311870     -0.099702
  H      -0.635009     -1.145152      2.252241
  H      -2.573699     -0.946113      3.721492
  H      -2.784283     -1.505919      1.383480
  H      -0.898262      1.861075      2.011213
  O      -2.795670      0.431167      0.694450
  O      -0.139953      0.034841      3.833024
  H       0.752441      0.227914      3.585938
  O       0.751301      0.850427      1.308986
  H       0.955951      1.568876      0.729920
  O      -1.304899      1.658695     -0.471920
  O      -2.773785      1.071758      3.493818
  H      -3.531106      1.398980      3.028867
  C      -1.812653      1.502858     -1.761961
  H      -2.900305      1.437362     -1.758660
  H      -1.405002      0.607413     -2.240687
  H      -1.512567      2.375254     -2.337200
  C      -4.632451     -0.548058      1.860561
  H      -5.060536     -1.253403      1.152268
  H      -4.857044     -0.932927      2.856136
  O      -5.234882      0.695804      1.729868
  C      -5.800175      0.974537      0.480703
  H      -6.184761      1.991322      0.516754
  H      -5.064821      0.901140     -0.318576
  H      -6.631940      0.294850      0.271408
30
Coordinates from ORCA-job 8 Relaxed Surface Scan Step 9
  C      -1.472583      0.655965      0.425454
  C      -0.568860      0.844784      1.633599
  C      -0.867999     -0.216147      2.676381
  C      -2.356973     -0.188872      3.010751
  C      -3.143112     -0.415665      1.719708
  H      -1.208023     -0.279711     -0.085719
  H      -0.650906     -1.193116      2.223520
  H      -2.560676     -0.999997      3.712294
  H      -2.850448     -1.386475      1.304289
  H      -0.780714      1.827178      2.061252
  O      -2.811899      0.600808      0.807485
  O      -0.108930     -0.050778      3.822329
  H       0.794091      0.074013      3.570407
  O       0.774059      0.739058      1.275370
  H       0.995915      1.445235      0.687265
  O      -1.274062      1.716677     -0.413328
  O      -2.746984      1.000635      3.618659
  H      -3.090747      1.600138      2.971865
  C      -1.887772      1.660673     -1.666128
  H      -2.969672      1.756048     -1.583130
  H      -1.650331      0.724262     -2.179629
  H      -1.502261      2.490218     -2.253592
  C      -4.673036     -0.419125      1.956397
  H      -5.113970     -1.288783      1.465897
  H      -4.855374     -0.530809      3.023543
  O      -5.310945      0.738509      1.548315
  C      -5.810288      0.737444      0.248809
  H      -6.222373      1.725240      0.053117
  H      -5.033012      0.530043     -0.487386
  H      -6.611249     -0.001171      0.135807
30
Coordinates from ORCA-job 8 Relaxed Surface Scan Step 10
  C      -1.501627      0.706726      0.449654
  C      -0.541289      0.793235      1.623536
  C      -0.875319     -0.266479      2.659433
  C      -2.356693     -0.192274      3.026069
  C      -3.186004     -0.301792      1.742174
  H      -1.346055     -0.242306     -0.086787
  H      -0.698486     -1.245623      2.194655
  H      -2.585552     -1.024590      3.693418
  H      -2.941990     -1.246593      1.243883
  H      -0.665376      1.779315      2.078443
  O      -2.819122      0.761421      0.899850
  O      -0.095347     -0.129242      3.795726
  H       0.811616     -0.073034      3.533743
  O       0.777611      0.600917      1.217680
  H       1.026374      1.297061      0.628205
  O      -1.245781      1.763413     -0.377404
  O      -2.675890      0.976883      3.708717
  H      -2.838695      1.675312      3.091443
  C      -1.945146      1.808941     -1.585708
  H      -3.003249      2.008862     -1.422753
  H      -1.838727      0.870215     -2.137525
  H      -1.516915      2.613986     -2.177548
  C      -4.708229     -0.252942      2.035253
  H      -5.140866     -1.234187      1.807034
  H      -4.852279     -0.069565      3.096310
  O      -5.391873      0.747559      1.371358
  C      -5.767803      0.486515      0.062591
  H      -6.271281      1.371876     -0.320366
  H      -4.910288      0.270414     -0.577874
  H      -6.464854     -0.357743      0.010388
30
Coordinates from ORCA-job 8 Relaxed Surface Scan Step 11
  C      -1.526029      0.756444      0.462728
  C      -0.530512      0.745043      1.609027
  C      -0.903540     -0.317188      2.631074
  C      -2.373541     -0.184157      3.031291
  C      -3.231786     -0.187810      1.758708
  H      -1.456954     -0.189869     -0.099649
  H      -0.778805     -1.294348      2.146224
  H      -2.634152     -1.030391      3.668220
  H      -3.048671     -1.117491      1.207860
  H      -0.577092      1.725740      2.090350
  O      -2.819075      0.893061      0.962391
  O      -0.099706     -0.231259      3.756175
  H       0.805023     -0.232660      3.480822
  O       0.762426      0.478170      1.164580
  H       1.039511      1.168717      0.581075
  O      -1.221591      1.813189     -0.346850
  O      -2.612212      0.966476      3.775461
  H      -2.661106      1.715848      3.200263
  C      -1.971359      1.949660     -1.518296
  H      -3.007322      2.201426     -1.296074
  H      -1.944682      1.030322     -2.110963
  H      -1.523188      2.753141     -2.097224
  C      -4.734552     -0.067174      2.083558
  H      -5.151320     -1.083941      2.124701
  H      -4.849017      0.380825      3.065458
  O      -5.456517      0.728120      1.213916
  C      -5.704822      0.226643     -0.051289
  H      -6.320841      0.951118     -0.580152
  H      -4.786667      0.071728     -0.623325
  H      -6.251033     -0.723102     -0.006462
30
Coordinates from ORCA-job 8 Relaxed Surface Scan Step 12
  C      -1.533049      0.811386      0.468228
  C      -0.526691      0.712507      1.600801
  C      -0.942419     -0.363489      2.592729
  C      -2.398680     -0.170152      3.020683
  C      -3.268546     -0.085901      1.758861
  H      -1.517354     -0.119014     -0.123535
  H      -0.876004     -1.327943      2.072395
  H      -2.693282     -1.024845      3.630253
  H      -3.142929     -1.008553      1.180159
  H      -0.516695      1.678663      2.113165
  O      -2.810693      0.995832      0.989445
  O      -0.119840     -0.359874      3.707274
  H       0.779772     -0.396957      3.417894
  O       0.746053      0.394315      1.132622
  H       1.051433      1.086946      0.565898
  O      -1.187854      1.876905     -0.312659
  O      -2.568693      0.961005      3.812462
  H      -2.543987      1.737188      3.272788
  C      -1.950264      2.083449     -1.466389
  H      -2.978639      2.341216     -1.217588
  H      -1.947372      1.193105     -2.102402
  H      -1.494448      2.905683     -2.011926
  C      -4.750261      0.109880      2.091681
  H      -5.156246     -0.873091      2.372101
  H      -4.841389      0.765747      2.951369
  O      -5.500474      0.687553      1.083023
  C      -5.673852     -0.036175     -0.082802
  H      -6.383619      0.504068     -0.706056
  H      -4.741898     -0.148648     -0.643829
  H      -6.081219     -1.034522      0.116953
30
Coordinates from ORCA-job 8 Relaxed Surface Scan Step 13
  C      -1.507560      0.878933      0.467990
  C      -0.513231      0.700909      1.602024
  C      -0.975842     -0.398541      2.546887
  C      -2.423164     -0.161163      2.984000
  C      -3.283940      0.000337      1.725430
  H      -1.516145     -0.025714     -0.160324
  H      -0.953674     -1.340043      1.982511
  H      -2.751575     -1.026297      3.560153
  H      -3.199161     -0.912661      1.124735
  H      -0.470737      1.645706      2.151519
  O      -2.782093      1.084131      0.986241
  O      -0.153938     -0.486477      3.658064
  H       0.743618     -0.542534      3.365239
  O       0.750327      0.354360      1.128856
  H       1.084388      1.056066      0.590147
  O      -1.124220      1.962842     -0.268562
  O      -2.553145      0.943837      3.819617
  H      -2.473998      1.739496      3.315099
  C      -1.868656      2.227134     -1.422934
  H      -2.901603      2.469479     -1.177922
  H      -1.853601      1.369699     -2.102502
  H      -1.405481      3.076269     -1.918743
  C      -4.751080      0.259251      2.045803
  H      -5.154114     -0.646140      2.519101
  H      -4.824579      1.069542      2.764254
  O      -5.517696      0.631352      0.953584
  C      -5.740291     -0.317748     -0.029237
  H      -6.498214      0.075096     -0.703998
  H      -4.841073     -0.530444     -0.615527
  H      -6.108657     -1.260395      0.392093
30
Coordinates from ORCA-job 8 Relaxed Surface Scan Step 14
  C      -1.427039      0.978827      0.458645
  C      -0.472832      0.724422      1.612423
  C      -0.982126     -0.418682      2.478132
  C      -2.439202     -0.186024      2.884151
  C      -3.259009      0.065085      1.615045
  H      -1.427521      0.111507     -0.219065
  H      -0.958290     -1.325196      1.859093
  H      -2.795570     -1.081910      3.392426
  H      -3.186887     -0.816539      0.967740
  H      -0.435729      1.637833      2.213526
  O      -2.712828      1.175444      0.948654
  O      -0.195747     -0.588418      3.605586
  H       0.709137     -0.643547      3.336007
  O       0.801229      0.385097      1.163066
  H       1.158410      1.106412      0.666686
  O      -1.006211      2.095775     -0.205048
  O      -2.589593      0.862993      3.786312
  H      -2.443151      1.688135      3.349261
  C      -1.700559      2.420796     -1.375575
  H      -2.749474      2.625094     -1.166882
  H      -1.633211      1.610009     -2.107068
  H      -1.233787      3.309750     -1.791858
  C      -4.724163      0.355479      1.896147
  H      -5.127092     -0.442363      2.529996
  H      -4.799797      1.286731      2.450569
  O      -5.476885      0.501507      0.738277
  C      -5.999138     -0.651956      0.174679
  H      -6.585680     -0.360760     -0.694144
  H      -5.221529     -1.347852     -0.157672
  H      -6.654862     -1.181368      0.874488
30
Coordinates from ORCA-job 8 Relaxed Surface Scan Step 15
  C      -1.396744      1.040279      0.445892
  C      -0.472705      0.708420      1.605918
  C      -1.031714     -0.454277      2.411839
  C      -2.483192     -0.182057      2.809628
  C      -3.276835      0.128702      1.540417
  H      -1.399080      0.209110     -0.274059
  H      -1.036972     -1.330612      1.750246
  H      -2.876781     -1.079297      3.287013
  H      -3.222262     -0.734956      0.869124
  H      -0.419056      1.593245      2.246983
  O      -2.690653      1.243876      0.911879
  O      -0.266146     -0.712188      3.536484
  H       0.640446     -0.778592      3.275213
  O       0.798547      0.350804      1.162410
  H       1.187700      1.083742      0.709010
  O      -0.934409      2.178239     -0.152256
  O      -2.614127      0.847421      3.737685
  H      -2.457466      1.680414      3.319608
  C      -1.581440      2.569605     -1.329292
  H      -2.630638      2.795965     -1.145956
  H      -1.513163      1.787553     -2.091183
  H      -1.077572      3.461062     -1.693836
  C      -4.740550      0.454119      1.798568
  H      -5.130006     -0.197215      2.586004
  H      -4.812433      1.478003      2.156368
  O      -5.515568      0.357575      0.648252
  C      -6.038349     -0.894790      0.359310
  H      -6.623209     -0.808813     -0.554042
  H      -5.260233     -1.648016      0.195809
  H      -6.694522     -1.251039      1.160560
30
Coordinates from ORCA-job 8 Relaxed Surface Scan Step 16
  C      -1.368722      1.096785      0.432944
  C      -0.480713      0.690914      1.598148
  C      -1.089628     -0.488184      2.340778
  C      -2.539184     -0.185637      2.720053
  C      -3.299054      0.189736      1.449201
  H      -1.372987      0.298801     -0.323120
  H      -1.108797     -1.334003      1.640800
  H      -2.969334     -1.085540      3.159467
  H      -3.251851     -0.646856      0.745275
  H      -0.417508      1.545464      2.278056
  O      -2.669918      1.313339      0.874284
  O      -0.356294     -0.821295      3.467027
  H       0.553797     -0.900348      3.221916
  O       0.789831      0.317240      1.166115
  H       1.210041      1.058594      0.756262
  O      -0.863074      2.247566     -0.102759
  O      -2.659803      0.818122      3.677711
  H      -2.487848      1.660230      3.284609
  C      -1.462626      2.703477     -1.281353
  H      -2.507203      2.964326     -1.117893
  H      -1.403481      1.946260     -2.068550
  H      -0.916227      3.587072     -1.601055
  C      -4.766751      0.538936      1.685170
  H      -5.128682      0.061645      2.598924
  H      -4.844478      1.613867      1.827554
  O      -5.574724      0.201820      0.603876
  C      -6.041901     -1.104963      0.577012
  H      -6.661636     -1.219652     -0.309782
  H      -5.231025     -1.839477      0.523495
  H      -6.649355     -1.331958      1.459434
30
Coordinates from ORCA-job 8 Relaxed Surface Scan Step 17
  C      -1.340968      1.150697      0.422021
  C      -0.494263      0.675216      1.590990
  C      -1.147623     -0.521756      2.263622
  C      -2.602586     -0.207074      2.609658
  C      -3.319299      0.241400      1.336303
  H      -1.344769      0.383919     -0.366126
  H      -1.158075     -1.338183      1.529415
  H      -3.064263     -1.114983      2.997931
  H      -3.268398     -0.555809      0.588747
  H      -0.433067      1.497035      2.310208
  O      -2.648589      1.379896      0.839257
  O      -0.457194     -0.911797      3.398862
  H       0.458526     -1.000539      3.179424
  O       0.779990      0.293646      1.177297
  H       1.226958      1.043337      0.813540
  O      -0.794516      2.309673     -0.052175
  O      -2.729928      0.758556      3.605238
  H      -2.537561      1.613108      3.250091
  C      -1.347438      2.826822     -1.227974
  H      -2.386645      3.117975     -1.081606
  H      -1.293227      2.096394     -2.040367
  H      -0.763990      3.702047     -1.501969
  C      -4.794664      0.603814      1.543586
  H      -5.117658      0.329664      2.550527
  H      -4.891551      1.682344      1.449861
  O      -5.630008      0.030543      0.589904
  C      -6.027367     -1.276228      0.834596
  H      -6.694367     -1.579113      0.030229
  H      -5.182247     -1.973264      0.857368
  H      -6.564345     -1.361059      1.785144
30
Coordinates from ORCA-job 8 Relaxed Surface Scan Step 18
  C      -1.313654      1.200212      0.414157
  C      -0.509865      0.663673      1.585699
  C      -1.195113     -0.555815      2.182050
  C      -2.662169     -0.249865      2.484477
  C      -3.329227      0.268515      1.207463
  H      -1.306290      0.466468     -0.405514
  H      -1.176768     -1.343229      1.417112
  H      -3.141424     -1.171621      2.813780
  H      -3.257359     -0.484388      0.416555
  H      -0.466072      1.451136      2.343580
  O      -2.630326      1.427833      0.805213
  O      -0.551174     -0.988668      3.329564
  H       0.370563     -1.083867      3.140243
  O       0.774126      0.288215      1.197692
  H       1.239210      1.048727      0.882339
  O      -0.739274      2.370328      0.005879
  O      -2.817435      0.668097      3.520324
  H      -2.602374      1.536095      3.213941
  C      -1.249319      2.944728     -1.162480
  H      -2.285849      3.252832     -1.032060
  H      -1.188299      2.245719     -2.001554
  H      -0.640978      3.817267     -1.386258
  C      -4.812462      0.632649      1.364882
  H      -5.103078      0.595031      2.417550
  H      -4.936950      1.654843      1.017455
  O      -5.653573     -0.163174      0.593730
  C      -6.013410     -1.391995      1.127130
  H      -6.732925     -1.850542      0.452105
  H      -5.159116     -2.070725      1.226348
  H      -6.478553     -1.282197      2.112198
30
Coordinates from ORCA-job 8 Relaxed Surface Scan Step 19
  C      -1.230792      1.266210      0.404356
  C      -0.440323      0.741841      1.592140
  C      -0.987077     -0.604173      2.043989
  C      -2.496192     -0.514734      2.273894
  C      -3.135659      0.008491      0.986707
  H      -1.054892      0.618840     -0.466661
  H      -0.823423     -1.313045      1.221938
  H      -2.877651     -1.507913      2.495405
  H      -2.913688     -0.687380      0.170613
  H      -0.552536      1.462088      2.407594
  O      -2.592768      1.274957      0.696316
  O      -0.351303     -1.050072      3.191130
  H       0.583178     -1.014818      3.050494
  O       0.905484      0.576575      1.271357
  H       1.281916      1.418217      1.062007
  O      -0.804493      2.537339      0.139862
  O      -2.828066      0.293901      3.358285
  H      -2.691335      1.202241      3.137454
  C      -1.306812      3.138970     -1.017151
  H      -2.382464      3.296081     -0.946576
  H      -1.092874      2.530197     -1.900504
  H      -0.810649      4.100208     -1.124241
  C      -4.640084      0.169344      1.067403
  H      -4.895075      0.883456      1.854390
  H      -5.003845      0.578298      0.118198
  O      -5.187202     -1.078737      1.319074
  C      -6.534039     -1.094510      1.650383
  H      -7.152883     -0.684150      0.844915
  H      -6.824861     -2.129027      1.818083
  H      -6.728723     -0.522415      2.562746
30
Coordinates from ORCA-job 8 Relaxed Surface Scan Step 20
  C      -1.222553      1.279933      0.398953
  C      -0.495037      0.746353      1.622354
  C      -1.045084     -0.617141      2.012179
  C      -2.565054     -0.554049      2.160982
  C      -3.145022     -0.011893      0.853870
  H      -0.981990      0.651449     -0.470004
  H      -0.827429     -1.302708      1.182885
  H      -2.940692     -1.557887      2.338153
  H      -2.880084     -0.694040      0.038690
  H      -0.667520      1.448458      2.443198
  O      -2.599317      1.263110      0.607900
  O      -0.466651     -1.085143      3.180582
  H       0.473476     -1.029608      3.094499
  O       0.869975      0.609241      1.379310
  H       1.242411      1.460117      1.202522
  O      -0.802378      2.562293      0.182354
  O      -2.970622      0.221857      3.245002
  H      -2.829543      1.137182      3.058516
  C      -1.243257      3.176017     -0.993300
  H      -2.324258      3.310357     -0.988221
  H      -0.961279      2.588609     -1.872003
  H      -0.761554      4.148744     -1.051425
  C      -4.654157      0.143179      0.876794
  H      -4.929877      0.902487      1.610439
  H      -4.993095      0.498208     -0.101808
  O      -5.213232     -1.089521      1.180965
  C      -6.413495     -1.070014      1.879865
  H      -7.201325     -0.555928      1.318873
  H      -6.721415     -2.101086      2.039560
  H      -6.299078     -0.582294      2.851913
30
Coordinates from ORCA-job 8 Relaxed Surface Scan Step 21
  C      -1.236035      1.283836      0.396089
  C      -0.567040      0.741357      1.648296
  C      -1.143976     -0.618664      2.011069
  C      -2.669136     -0.548134      2.088535
  C      -3.187033      0.006606      0.761544
  H      -0.967399      0.655128     -0.464733
  H      -0.891240     -1.305749      1.193259
  H      -3.053535     -1.553768      2.240452
  H      -2.887170     -0.672885     -0.043714
  H      -0.771091      1.443560      2.461920
  O      -2.619855      1.278904      0.550188