30
Coordinates from ORCA-job 29 Relaxed Surface Scan Step 1
  O      35.957797    -23.039270     -2.828002
  C      35.134339    -21.947651     -2.987078
  C      33.266415    -21.867043     -4.668975
  O      33.890270    -22.316167     -3.478868
  C      35.898185    -20.945148     -3.840431
  O      36.744167    -20.156475     -3.055595
  C      34.963478    -20.032712     -4.601222
  O      35.680152    -19.150156     -5.406444
  C      34.097460    -20.895189     -5.503858
  O      34.891767    -21.589472     -6.417182
  C      32.783358    -23.059013     -5.484022
  O      31.666363    -23.679638     -4.937174
  H      34.955495    -21.490132     -2.007654
  H      32.377198    -21.321100     -4.347356
  H      36.477030    -21.510934     -4.568331
  H      34.326151    -19.484844     -3.897865
  H      33.398704    -20.247733     -6.041136
  H      33.608311    -23.762143     -5.618404
  H      32.487102    -22.704397     -6.469891
  H      35.444092    -20.965574     -6.866137
  H      36.375734    -18.766094     -4.891976
  H      37.454496    -20.686022     -2.726716
  C      35.562449    -23.992000     -1.889873
  H      35.386628    -23.534199     -0.911385
  H      34.656243    -24.509601     -2.202087
  H      36.370271    -24.714432     -1.798729
  C      31.861466    -24.624046     -3.936149
  H      32.138642    -24.166496     -2.985790
  H      30.923643    -25.162307     -3.808037
  H      32.638018    -25.344800     -4.213052
30
Coordinates from ORCA-job 29 Relaxed Surface Scan Step 2
  O      36.068645    -22.952764     -2.649407
  C      35.167948    -21.987912     -3.021609
  C      33.321386    -21.905941     -4.656158
  O      34.092766    -22.566223     -3.675470
  C      35.930340    -20.966141     -3.850763
  O      36.738046    -20.169353     -3.038060
  C      34.999453    -20.063806     -4.627410
  O      35.717651    -19.196020     -5.447607
  C      34.111529    -20.924308     -5.511519
  O      34.873418    -21.610791     -6.454394
  C      32.614919    -22.959125     -5.495438
  O      31.564638    -23.579403     -4.830727
  H      34.792670    -21.478827     -2.121235
  H      32.546140    -21.324398     -4.145401
  H      36.535807    -21.520988     -4.568357
  H      34.372280    -19.499780     -3.927645
  H      33.387883    -20.273866     -6.013103
  H      33.351858    -23.683030     -5.848371
  H      32.184444    -22.468196     -6.367665
  H      35.427182    -20.987255     -6.902136
  H      36.411377    -18.799400     -4.940319
  H      37.404458    -20.707749     -2.638065
  C      35.628891    -23.903174     -1.726993
  H      35.211699    -23.424684     -0.835763
  H      34.875647    -24.559385     -2.160961
  H      36.492500    -24.496332     -1.435783
  C      31.851367    -24.682988     -4.034527
  H      32.342826    -24.402293     -3.102607
  H      30.906465    -25.171502     -3.801948
  H      32.491187    -25.399156     -4.559979
30
Coordinates from ORCA-job 29 Relaxed Surface Scan Step 3
  O      36.042669    -22.843433     -2.431624
  C      35.180633    -21.974842     -3.042690
  C      33.372921    -21.899517     -4.575098
  O      34.281929    -22.671481     -3.832263
  C      36.006207    -21.023935     -3.890790
  O      36.856768    -20.241707     -3.111368
  C      35.095341    -20.091099     -4.664268
  O      35.820184    -19.292477     -5.547285
  C      34.087362    -20.895947     -5.476490
  O      34.723836    -21.572472     -6.512865
  C      32.477330    -22.845037     -5.352775
  O      31.657297    -23.578490     -4.501951
  H      34.628149    -21.401028     -2.281773
  H      32.737507    -21.334262     -3.882605
  H      36.569601    -21.634136     -4.599983
  H      34.553124    -19.466223     -3.945697
  H      33.338605    -20.203651     -5.877124
  H      33.098354    -23.490699     -5.973778
  H      31.841816    -22.255777     -6.016223
  H      35.292388    -20.962729     -6.961159
  H      36.555393    -18.913959     -5.086970
  H      37.451305    -20.807487     -2.641414
  C      35.496744    -23.701373     -1.474180
  H      34.969699    -23.139122     -0.697783
  H      34.806219    -24.412534     -1.925293
  H      36.320914    -24.243807     -1.017550
  C      31.983499    -24.916200     -4.311350
  H      32.994636    -25.037275     -3.919626
  H      31.275349    -25.328210     -3.594391
  H      31.899643    -25.485881     -5.243054
30
Coordinates from ORCA-job 29 Relaxed Surface Scan Step 4
  O      35.965778    -22.769436     -2.295873
  C      35.195263    -21.953074     -3.073841
  C      33.405827    -21.926796     -4.509126
  O      34.452777    -22.704986     -4.008678
  C      36.094421    -21.102638     -3.932756
  O      37.006942    -20.338363     -3.208988
  C      35.182599    -20.130317     -4.680024
  O      35.881750    -19.391700     -5.633674
  C      34.023732    -20.837994     -5.401306
  O      34.485414    -21.441666     -6.566841
  C      32.432409    -22.815650     -5.259276
  O      31.773455    -23.674636     -4.383802
  H      34.520646    -21.358746     -2.447974
  H      32.857357    -21.458188     -3.686310
  H      36.595811    -21.771356     -4.633551
  H      34.759587    -19.457168     -3.925661
  H      33.264299    -20.084213     -5.639463
  H      32.968955    -23.361553     -6.034180
  H      31.687640    -22.185900     -5.749606
  H      35.072402    -20.839587     -7.001372
  H      36.663808    -19.036511     -5.236622
  H      37.548282    -20.915126     -2.690465
  C      35.290094    -23.578596     -1.378947
  H      34.691695    -22.975392     -0.689662
  H      34.637780    -24.289784     -1.883999
  H      36.040243    -24.121360     -0.809521
  C      32.160562    -25.009697     -4.408688
  H      33.226262    -25.128658     -4.204894
  H      31.593312    -25.531425     -3.639543
  H      31.936320    -25.474276     -5.374780
30
Coordinates from ORCA-job 29 Relaxed Surface Scan Step 5
  O      35.864221    -22.714639     -2.201614
  C      35.229369    -21.902272     -3.092022
  C      33.409224    -21.960721     -4.418844
  O      34.564677    -22.671210     -4.138452
  C      36.205184    -21.191562     -3.957362
  O      37.165200    -20.437251     -3.286422
  C      35.285080    -20.187875     -4.698860
  O      35.932003    -19.549411     -5.756614
  C      33.946118    -20.769511     -5.269117
  O      34.164133    -21.260400     -6.552583
  C      32.415664    -22.828036     -5.168190
  O      31.900757    -23.806502     -4.317578
  H      34.522903    -21.253810     -2.578604
  H      32.907468    -21.616631     -3.513797
  H      36.657570    -21.913974     -4.632863
  H      35.021987    -19.446029     -3.936944
  H      33.222017    -19.946786     -5.301900
  H      32.896368    -23.265628     -6.040469
  H      31.590499    -22.204535     -5.517734
  H      34.779961    -20.691693     -6.991807
  H      36.756365    -19.199716     -5.451738
  H      37.684534    -21.011312     -2.743151
  C      35.045528    -23.436590     -1.328536
  H      34.455091    -22.764295     -0.698533
  H      34.370430    -24.093970     -1.875319
  H      35.692925    -24.033977     -0.692058
  C      32.350020    -25.106154     -4.522668
  H      33.436201    -25.179270     -4.438185
  H      31.893549    -25.737153     -3.761537
  H      32.050378    -25.483873     -5.505919
30
Coordinates from ORCA-job 29 Relaxed Surface Scan Step 6
  O      35.746921    -22.658772     -2.128631
  C      35.261789    -21.850453     -3.107568
  C      33.405944    -22.010312     -4.314531
  O      34.628725    -22.628736     -4.217396
  C      36.311494    -21.286847     -3.960550
  O      37.299768    -20.544023     -3.320649
  C      35.395807    -20.268619     -4.745250
  O      35.960252    -19.831452     -5.943080
  C      33.872128    -20.697847     -5.081045
  O      33.765551    -20.981433     -6.436630
  C      32.414606    -22.856045     -5.091024
  O      32.022416    -23.946434     -4.310115
  H      34.573977    -21.122188     -2.693186
  H      32.944890    -21.803946     -3.349919
  H      36.729297    -22.061068     -4.596197
  H      35.327395    -19.421445     -4.055948
  H      33.244355    -19.832119     -4.838480
  H      32.855190    -23.174930     -6.032366
  H      31.530301    -22.259434     -5.319853
  H      34.419047    -20.485763     -6.908937
  H      36.814304    -19.462660     -5.774745
  H      37.784408    -21.111120     -2.739298
  C      34.802330    -23.276041     -1.302394
  H      34.212052    -22.532707     -0.757680
  H      34.130239    -23.910615     -1.879331
  H      35.344901    -23.885006     -0.584371
  C      32.554188    -25.182440     -4.660779
  H      33.645638    -25.180344     -4.625610
  H      32.179925    -25.917140     -3.949374
  H      32.237585    -25.484850     -5.664484
30
Coordinates from ORCA-job 29 Relaxed Surface Scan Step 7
  O      35.636441    -22.549671     -1.996285
  C      35.258892    -21.764587     -3.039649
  C      33.404602    -22.053885     -4.171208
  O      34.664946    -22.578752     -4.193217
  C      36.373830    -21.336631     -3.863027
  O      37.298566    -20.497425     -3.252810
  C      35.471200    -20.498654     -4.908736
  O      35.696757    -20.892043     -6.230539
  C      33.837437    -20.576060     -4.706421
  O      33.236619    -20.211948     -5.897636
  C      32.458682    -22.789542     -5.097948
  O      32.119769    -24.037443     -4.574061
  H      34.591785    -20.986329     -2.702362
  H      32.945085    -22.034500     -3.183315
  H      36.834594    -22.189039     -4.351288
  H      35.738161    -19.445769     -4.782000
  H      33.555654    -19.809248     -3.982204
  H      32.908733    -22.887187     -6.088404
  H      31.542514    -22.211135     -5.205507
  H      33.786451    -20.507434     -6.610723
  H      36.534130    -20.574522     -6.529246
  H      37.712375    -20.962786     -2.540702
  C      34.634497    -23.098371     -1.190628
  H      33.983956    -22.319303     -0.781788
  H      34.029388    -23.814472     -1.746686
  H      35.124894    -23.609796     -0.366713
  C      32.866689    -25.126598     -5.012882
  H      33.925247    -25.021969     -4.770723
  H      32.475210    -26.013884     -4.517884
  H      32.768319    -25.265811     -6.094827
30
Coordinates from ORCA-job 29 Relaxed Surface Scan Step 8
  O      35.568130    -22.579073     -2.059101
  C      35.274622    -21.759499     -3.105733
  C      33.409639    -22.111914     -4.159390
  O      34.690589    -22.534858     -4.317764
  C      36.430140    -21.408040     -3.888102
  O      37.394510    -20.629379     -3.265962
  C      35.492704    -20.475765     -4.885484
  O      35.708347    -20.756567     -6.232583
  C      33.807517    -20.580550     -4.682233
  O      33.218934    -20.240272     -5.881437
  C      32.420731    -22.827893     -5.054171
  O      32.123117    -24.098527     -4.559447
  H      34.643893    -20.949900     -2.779837
  H      33.024265    -22.148137     -3.143183
  H      36.837458    -22.261965     -4.416086
  H      35.753467    -19.434932     -4.668457
  H      33.508729    -19.812825     -3.963999
  H      32.811032    -22.882504     -6.072638
  H      31.491957    -22.260072     -5.085188
  H      33.799674    -20.500661     -6.584378
  H      36.535047    -20.398665     -6.515212
  H      37.779655    -21.125529     -2.558367
  C      34.553078    -23.010075     -1.200822
  H      33.937124    -22.172871     -0.859251
  H      33.914593    -23.752862     -1.679233
  H      35.033087    -23.461760     -0.336497
  C      32.912252    -25.149582     -5.017898
  H      33.963632    -25.016651     -4.758828
  H      32.544397    -26.063094     -4.553512
  H      32.833105    -25.260369     -6.104629
30
Coordinates from ORCA-job 29 Relaxed Surface Scan Step 9
  O      35.476534    -22.695466     -2.176881
  C      35.275453    -21.811193     -3.202692
  C      33.399253    -22.191952     -4.182447
  O      34.691007    -22.492148     -4.451767
  C      36.472231    -21.509228     -3.928852
  O      37.462987    -20.812609     -3.262066
  C      35.498692    -20.450631     -4.856526
  O      35.685730    -20.603824     -6.222167
  C      33.758933    -20.581035     -4.641570
  O      33.175489    -20.221239     -5.830742
  C      32.389489    -22.867619     -5.083845
  O      32.082206    -24.156540     -4.649891
  H      34.700095    -20.975658     -2.845171
  H      33.081026    -22.319825     -3.152358
  H      36.832959    -22.337569     -4.525026
  H      35.767067    -19.437316     -4.537182
  H      33.452347    -19.837707     -3.900087
  H      32.759665    -22.875723     -6.111918
  H      31.463467    -22.295398     -5.068676
  H      33.764916    -20.451257     -6.537703
  H      36.508400    -20.224323     -6.488420
  H      37.784918    -21.346471     -2.549883
  C      34.528732    -22.871458     -1.166195
  H      34.024254    -21.932344     -0.921063
  H      33.780905    -23.616221     -1.440086
  H      35.056079    -23.219251     -0.280605
  C      32.964803    -25.167806     -5.018812
  H      33.957011    -25.027066     -4.587119
  H      32.551912    -26.109894     -4.662219
  H      33.068864    -25.226018     -6.107454
30
Coordinates from ORCA-job 29 Relaxed Surface Scan Step 10
  O      35.344822    -22.803444     -2.278049
  C      35.256223    -21.857660     -3.287723
  C      33.367099    -22.257510     -4.201441
  O      34.664810    -22.439080     -4.525369
  C      36.499836    -21.619261     -3.948361
  O      37.506118    -21.007756     -3.235786
  C      35.491118    -20.426868     -4.831333
  O      35.647279    -20.492276     -6.200704
  C      33.697868    -20.566893     -4.601892
  O      33.119788    -20.183844     -5.779029
  C      32.369562    -22.906689     -5.132392
  O      32.063120    -24.213581     -4.760926
  H      34.751013    -20.996437     -2.887157
  H      33.094057    -22.462055     -3.172242
  H      36.817839    -22.415803     -4.607920
  H      35.783088    -19.445840     -4.437742
  H      33.392768    -19.846336     -3.837615
  H      32.748571    -22.867590     -6.157186
  H      31.438844    -22.343481     -5.100238
  H      33.705149    -20.407138     -6.491998
  H      36.481030    -20.131878     -6.459793
  H      37.753829    -21.569569     -2.514815
  C      34.544941    -22.726528     -1.137448
  H      34.204787    -21.703958     -0.950032
  H      33.672610    -23.377508     -1.212881
  H      35.138940    -23.048772     -0.283635
  C      33.026572    -25.180631     -5.032528
  H      33.937826    -25.030362     -4.450549
  H      32.599941    -26.149325     -4.778667
  H      33.295973    -25.186718     -6.093967
30
Coordinates from ORCA-job 29 Relaxed Surface Scan Step 11
  O      35.209212    -23.457512     -2.232671
  C      35.468521    -22.145870     -2.467977
  C      33.807924    -21.418623     -4.164643
  O      35.110259    -21.650246     -3.689585
  C      36.994228    -21.999957     -2.452869
  O      37.594979    -21.297220     -3.172119
  C      35.209266    -19.993375     -5.819208
  O      35.038412    -20.866552     -6.916633
  C      33.947280    -20.089954     -4.926210
  O      32.798176    -19.805142     -5.669772
  C      33.295468    -22.588747     -5.006586
  O      32.962590    -23.643954     -4.155245
  H      35.033866    -21.521816     -1.673854
  H      33.112092    -21.269691     -3.336951
  H      37.497406    -22.632305     -1.737229
  H      35.309031    -18.963893     -6.179753
  H      34.036801    -19.306584     -4.167033
  H      34.065117    -22.892048     -5.727272
  H      32.405661    -22.260492     -5.563563
  H      32.935244    -20.083384     -6.570089
  H      35.872490    -21.193489     -7.223815
  H      36.110790    -20.243338     -5.249681
  C      34.113650    -23.811783     -1.426129
  H      34.208208    -23.319860     -0.465942
  H      33.177757    -23.563543     -1.895951
  H      34.113952    -24.904731     -1.256644
  C      32.992163    -24.917628     -4.709250
  H      33.982718    -25.134501     -5.131316
  H      32.773520    -25.630505     -3.905748
  H      32.238645    -25.058047     -5.495682
30
Coordinates from ORCA-job 29 Relaxed Surface Scan Step 12
  O      35.111495    -23.246768     -1.793785
  C      35.607407    -22.088949     -2.338319
  C      34.069141    -21.673285     -4.174409
  O      35.367127    -21.930551     -3.689279
  C      37.111451    -22.224607     -2.224779
  O      37.804473    -21.448510     -1.666887
  C      35.035768    -20.075882     -5.954541
  O      34.467667    -20.683005     -7.083732
  C      34.078418    -20.263877     -4.788013
  O      32.790255    -19.868676     -5.139108
  C      33.640270    -22.786805     -5.110247
  O      33.324308    -23.908718     -4.354782
  H      35.267292    -21.213769     -1.774434
  H      33.351721    -21.639762     -3.354962
  H      37.506112    -23.131925     -2.709336
  H      35.165728    -19.003584     -6.125684
  H      34.416780    -19.600265     -3.990503
  H      34.446542    -23.005281     -5.813686
  H      32.770556    -22.463963     -5.688775
  H      32.640243    -20.089444     -6.046846
  H      34.990866    -20.517205     -7.851094
  H      36.006910    -20.507390     -5.709163
  C      33.863406    -23.262940     -1.162688
  H      33.684360    -22.331245     -0.618817
  H      33.062110    -23.431336     -1.878325
  H      33.873281    -24.081447     -0.446232
  C      33.048701    -25.054815     -5.082750
  H      33.907400    -25.364160     -5.687846
  H      32.814799    -25.852157     -4.380314
  H      32.190835    -24.914468     -5.750085
30
Coordinates from ORCA-job 29 Relaxed Surface Scan Step 13
  O      35.078492    -23.242363     -1.811311
  C      35.614059    -22.093358     -2.335833
  C      34.066637    -21.663565     -4.171437
  O      35.367695    -21.891825     -3.680173
  C      37.112878    -22.295809     -2.248145
  O      37.846264    -21.571429     -1.672822
  C      35.016498    -20.056335     -5.952127
  O      34.466931    -20.678811     -7.082183
  C      34.055180    -20.256633     -4.790924
  O      32.762721    -19.884821     -5.151842
  C      33.659172    -22.787213     -5.105095
  O      33.347598    -23.909120     -4.348098
  H      35.317234    -21.218773     -1.747064
  H      33.345418    -21.637651     -3.355268
  H      37.460485    -23.201428     -2.770357
  H      35.127359    -18.982508     -6.127265
  H      34.376806    -19.584589     -3.993670
  H      34.474422    -22.999775     -5.800063
  H      32.791498    -22.476491     -5.693244
  H      32.621928    -20.112517     -6.059338
  H      34.994076    -20.509943     -7.846168
  H      35.993797    -20.468715     -5.698694
  C      33.840842    -23.226005     -1.160439
  H      33.689451    -22.285837     -0.623033
  H      33.025451    -23.383626     -1.862646
  H      33.842943    -24.038141     -0.436558
  C      33.085410    -25.059357     -5.074204
  H      33.950329    -25.364379     -5.672717
  H      32.852772    -25.856276     -4.370866
  H      32.231079    -24.927498     -5.747836
30
Coordinates from ORCA-job 29 Relaxed Surface Scan Step 14
  O      35.049189    -23.237136     -1.823220
  C      35.619406    -22.098263     -2.331626
  C      34.061530    -21.655198     -4.168053
  O      35.363562    -21.856049     -3.667944
  C      37.111116    -22.360771     -2.276343
  O      37.882644    -21.682027     -1.695460
  C      34.999962    -20.038879     -5.946839
  O      34.470927    -20.675320     -7.078939
  C      34.032309    -20.250825     -4.793037
  O      32.737160    -19.901188     -5.166205
  C      33.676404    -22.787543     -5.101010
  O      33.364856    -23.909389     -4.344119
  H      35.365391    -21.226146     -1.719654
  H      33.334589    -21.636569     -3.356898
  H      37.412838    -23.264581     -2.829329
  H      35.093661    -18.963969     -6.125525
  H      34.336361    -19.571308     -3.995325
  H      34.502280    -22.995119     -5.785018
  H      32.813479    -22.487192     -5.701360
  H      32.607734    -20.134019     -6.074077
  H      35.002856    -20.502184     -7.838637
  H      35.981980    -20.433236     -5.683367
  C      33.822709    -23.191525     -1.153086
  H      33.695725    -22.242846     -0.624632
  H      32.994467    -23.342159     -1.841842
  H      33.820252    -23.995557     -0.420092
  C      33.117927    -25.063141     -5.069762
  H      33.990802    -25.363790     -5.658960
  H      32.883795    -25.859902     -4.366737
  H      32.269511    -24.938960     -5.752326
30
Coordinates from ORCA-job 29 Relaxed Surface Scan Step 15
  O      35.022927    -23.230319     -1.828153
  C      35.624146    -22.103700     -2.326070
  C      34.053840    -21.647738     -4.164223
  O      35.354918    -21.823214     -3.652672
  C      37.106557    -22.422651     -2.310540
  O      37.916676    -21.786831     -1.733905
  C      34.985500    -20.022583     -5.938737
  O      34.478214    -20.671271     -7.073868
  C      34.009667    -20.245876     -4.794024
  O      32.713212    -19.917046     -5.181334
  C      33.692388    -22.787987     -5.097348
  O      33.381469    -23.910241     -4.340950
  H      35.415041    -21.235256     -1.692318
  H      33.319319    -21.636633     -3.359890
  H      37.359849    -23.324543     -2.890334
  H      35.063803    -18.946909     -6.120335
  H      34.295400    -19.559827     -3.995246
  H      34.528989    -22.989640     -5.770145
  H      32.834451    -22.498264     -5.709925
  H      32.596500    -20.154344     -6.089764
  H      35.015750    -20.493260     -7.828472
  H      35.970895    -20.400291     -5.663914
  C      33.805821    -23.156739     -1.144047
  H      33.700117    -22.200161     -0.625405
  H      32.967502    -23.301150     -1.822084
  H      33.797278    -23.952513     -0.402011
  C      33.150477    -25.067381     -5.066237
  H      34.031307    -25.362884     -5.646224
  H      32.915425    -25.864304     -4.363705
  H      32.307983    -24.951238     -5.757540
30
Coordinates from ORCA-job 29 Relaxed Surface Scan Step 16
  O      34.997560    -23.222001     -1.826168
  C      35.628169    -22.110390     -2.320006
  C      34.043536    -21.641650     -4.160484
  O      35.341903    -21.793497     -3.635272
  C      37.097952    -22.485443     -2.350706
  O      37.948350    -21.891462     -1.787979
  C      34.972186    -20.006793     -5.927770
  O      34.488056    -20.665929     -7.067014
  C      33.986537    -20.241980     -4.793941
  O      32.690036    -19.933049     -5.197147
  C      33.707356    -22.788759     -5.094902
  O      33.399606    -23.912544     -4.339613
  H      35.467445    -21.246222     -1.666751
  H      33.299903    -21.638884     -3.364668
  H      37.298536    -23.385287     -2.953777
  H      35.036202    -18.930489     -6.111310
  H      34.252903    -19.550499     -3.993271
  H      34.554370    -22.982322     -5.757083
  H      32.853788    -22.510393     -5.718763
  H      32.587459    -20.173941     -6.106322
  H      35.032114    -20.482343     -7.815573
  H      35.959868    -20.368798     -5.640494
  C      33.789506    -23.117983     -1.130654
  H      33.707217    -22.154678     -0.620394
  H      32.941747    -23.252140     -1.799193
  H      33.771623    -23.906693     -0.381200
  C      33.185997    -25.072864     -5.064966
  H      34.074675    -25.361194     -5.636617
  H      32.952027    -25.870818     -4.363250
  H      32.348795    -24.965748     -5.764135
30
Coordinates from ORCA-job 29 Relaxed Surface Scan Step 17
  O      34.971447    -23.213127     -1.820747
  C      35.631524    -22.119614     -2.313475
  C      34.030729    -21.636546     -4.156372
  O      35.324581    -21.764167     -3.614721
  C      37.084815    -22.550914     -2.397541
  O      37.976064    -21.998356     -1.856329
  C      34.959374    -19.990746     -5.913844
  O      34.501370    -20.659470     -7.058354
  C      33.961816    -20.239006     -4.793344
  O      32.666570    -19.950424     -5.215268
  C      33.722488    -22.789867     -5.092814
  O      33.419733    -23.916361     -4.339642
  H      35.524257    -21.261308     -1.641968
  H      33.276400    -21.642868     -3.370700
  H      37.229556    -23.448565     -3.019655
  H      35.009046    -18.913900     -6.098726
  H      34.206562    -19.542659     -3.990116
  H      34.580293    -22.973180     -5.744097
  H      32.873352    -22.523642     -5.727951
  H      32.580487    -20.194133     -6.125394
  H      35.053393    -20.469516     -7.799444
  H      35.948434    -20.336738     -5.612162
  C      33.774215    -23.075099     -1.112858
  H      33.717326    -22.103869     -0.614437
  H      32.916395    -23.199580     -1.770669
  H      33.747230    -23.853989     -0.353415
  C      33.223955    -25.078954     -5.066231
  H      34.119987    -25.358323     -5.630925
  H      32.992745    -25.879108     -4.366114
  H      32.391282    -24.980760     -5.772109
30
Coordinates from ORCA-job 29 Relaxed Surface Scan Step 18
  O      34.301938    -22.534706     -1.672095
  C      35.404421    -22.123434     -2.393048
  C      33.921994    -22.013928     -4.334032
  O      35.185423    -22.233564     -3.742854
  C      36.555993    -23.067366     -2.083855
  O      37.461163    -22.784697     -1.378819
  C      34.803646    -20.001636     -5.690491
  O      34.437592    -20.450840     -6.966740
  C      33.780246    -20.527706     -4.695089
  O      32.486726    -20.243900     -5.126603
  C      33.794376    -22.988530     -5.486645
  O      33.667619    -24.267949     -4.961672
  H      35.687992    -21.103139     -2.106523
  H      33.134986    -22.249486     -3.624496
  H      36.447245    -24.058420     -2.552682
  H      34.792569    -18.908368     -5.656543
  H      33.932112    -19.978160     -3.763641
  H      34.668511    -22.921944     -6.138776
  H      32.913810    -22.730960     -6.082607
  H      32.453278    -20.338174     -6.067434
  H      35.002993    -20.082772     -7.626148
  H      35.801277    -20.346824     -5.413525
  C      34.166813    -22.025725     -0.378866
  H      34.081197    -20.935636     -0.390833
  H      33.256334    -22.446662      0.038703
  H      35.009487    -22.303428      0.257844
  C      33.584574    -25.282274     -5.899868
  H      34.483397    -25.331815     -6.524936
  H      33.480079    -26.226157     -5.368390
  H      32.717633    -25.156591     -6.558756
30
Coordinates from ORCA-job 29 Relaxed Surface Scan Step 19
  O      34.272930    -22.393127     -1.672818
  C      35.419239    -22.146593     -2.398893
  C      33.917811    -22.038297     -4.336933
  O      35.187230    -22.234228     -3.750424
  C      36.437548    -23.229757     -2.076446
  O      37.365672    -23.060855     -1.364576
  C      34.749968    -19.978990     -5.652126
  O      34.405190    -20.417803     -6.938076
  C      33.736088    -20.551090     -4.672740
  O      32.437729    -20.296204     -5.108153
  C      33.817555    -22.999227     -5.503592
  O      33.732699    -24.289279     -4.994091
  H      35.839267    -21.169906     -2.129319
  H      33.136868    -22.304641     -3.632457
  H      36.208119    -24.200603     -2.544254
  H      34.706637    -18.887181     -5.600696
  H      33.866388    -20.016266     -3.729546
  H      34.686790    -22.897689     -6.157507
  H      32.926800    -22.762069     -6.092822
  H      32.413250    -20.374357     -6.050720
  H      34.963897    -20.022908     -7.587578
  H      35.755433    -20.299709     -5.374259
  C      34.218899    -21.867537     -0.379713
  H      34.292365    -20.776733     -0.394980
  H      33.258871    -22.151396      0.042409
  H      35.015524    -22.263287      0.253439
  C      33.674461    -25.293843     -5.944900
  H      34.570271    -25.307856     -6.575957
  H      33.602161    -26.247248     -5.425150
  H      32.799763    -25.186112     -6.596542
30
Coordinates from ORCA-job 29 Relaxed Surface Scan Step 20
  O      34.255079    -22.241919     -1.686214
  C      35.430448    -22.174395     -2.402567
  C      33.922125    -22.033463     -4.340035
  O      35.200918    -22.185476     -3.760894
  C      36.272513    -23.402170     -2.090282
  O      37.189734    -23.386131     -1.344519
  C      34.687777    -19.941555     -5.641758
  O      34.365608    -20.389047     -6.930923
  C      33.690311    -20.552522     -4.669428
  O      32.385845    -20.341046     -5.110533
  C      33.847941    -22.996354     -5.507302
  O      33.814926    -24.288813     -4.994505
  H      35.998865    -21.280292     -2.121448
  H      33.152429    -22.325644     -3.634180
  H      35.931282    -24.316485     -2.601704
  H      34.604466    -18.852160     -5.587902
  H      33.798060    -20.021130     -3.721896
  H      34.707681    -22.864719     -6.168020
  H      32.943938    -22.794003     -6.089130
  H      32.369143    -20.414320     -6.053624
  H      34.914040    -19.973460     -7.576222
  H      35.702527    -20.226662     -5.359427
  C      34.283829    -21.750849     -0.378090
  H      34.545350    -20.689410     -0.363594
  H      33.286002    -21.875718      0.033075
  H      34.995803    -22.295777      0.244372
  C      33.786147    -25.297296     -5.943075
  H      34.676947    -25.279707     -6.580890
  H      33.752673    -26.251613     -5.421041
  H      32.903016    -25.222655     -6.587666
30
Coordinates from ORCA-job 29 Relaxed Surface Scan Step 21
  O      34.263567    -22.056433     -1.694690
  C      35.433066    -22.214109     -2.405424
  C      33.938243    -22.015472     -4.339162
  O      35.227092    -22.093457     -3.766468
  C      36.020286    -23.591057     -2.135660
  O      36.885846    -23.773288     -1.349763
  C      34.608557    -19.893711     -5.642236
  O      34.318639    -20.363713     -6.931592
  C      33.636382    -20.548713     -4.673496
  O      32.325883    -20.402914     -5.124199
  C      33.896222    -22.987316     -5.501180