40
Coordinates from ORCA-job 21 Relaxed Surface Scan Step 1
  C      33.624791    -27.472153     -5.822427
  C      34.662379    -25.837860     -4.480762
  O      34.794259    -26.999575     -5.237538
  C      32.600022    -27.817863     -4.755452
  O      31.429763    -28.234841     -5.382116
  C      32.351694    -26.598293     -3.884618
  O      31.500644    -26.984066     -2.833668
  C      33.663686    -26.034090     -3.340434
  O      34.210569    -26.892742     -2.392707
  C      36.033742    -25.448258     -3.971773
  O      36.751339    -24.853296     -5.024393
  C      38.120787    -24.803354     -4.929889
  C      40.033779    -26.152830     -4.851289
  O      38.640738    -26.076779     -4.793441
  C      38.616813    -23.927042     -3.784358
  O      38.168336    -22.610330     -3.911439
  C      40.136113    -23.894019     -3.800191
  O      40.642527    -23.203596     -2.700146
  C      40.699356    -25.311407     -3.773014
  O      40.469844    -25.903247     -2.535171
  H      33.198154    -26.733366     -6.511807
  H      34.291027    -25.023112     -5.115842
  H      33.013437    -28.609730     -4.125225
  H      31.862923    -25.841700     -4.506052
  H      33.461187    -25.052470     -2.889416
  H      35.921859    -24.741875     -3.144206
  H      36.538957    -26.335385     -3.603758
  H      38.450975    -24.359706     -5.875381
  H      40.388831    -25.832106     -5.837567
  H      38.294884    -24.363514     -2.836640
  H      40.449699    -23.406362     -4.730244
  H      41.774021    -25.263661     -3.982314
  H      40.732396    -25.293376     -1.860760
  H      33.517932    -27.215616     -1.834980
  H      40.201066    -22.369752     -2.628153
  H      30.791323    -28.454826     -4.720935
  H      31.019619    -26.241613     -2.503546
  H      37.235586    -22.601854     -4.063867
  H      33.876653    -28.358200     -6.399479
  H      40.301571    -27.196441     -4.712687
40
Coordinates from ORCA-job 21 Relaxed Surface Scan Step 2
  C      33.659061    -27.641671     -5.722875
  C      34.681544    -25.882137     -4.536823
  O      34.816612    -27.124502     -5.151630
  C      32.594362    -27.853146     -4.659904
  O      31.437056    -28.318760     -5.276168
  C      32.340969    -26.542241     -3.935446
  O      31.452903    -26.798870     -2.875706
  C      33.645110    -25.938768     -3.415201
  O      34.150228    -26.695000     -2.362673
  C      36.043841    -25.456409     -4.029331
  O      36.766953    -24.862587     -5.080475
  C      38.129285    -24.769953     -4.937098
  C      40.089537    -26.038734     -5.014248
  O      38.696326    -26.030901     -4.927680
  C      38.587625    -24.001327     -3.702361
  O      38.093942    -22.693975     -3.690110
  C      40.105956    -23.907086     -3.718722
  O      40.591629    -23.324159     -2.549376
  C      40.731807    -25.292111     -3.854562
  O      40.543606    -26.027764     -2.689188
  H      33.269496    -26.977026     -6.503448
  H      34.345100    -25.138375     -5.270121
  H      32.973027    -28.577433     -3.933825
  H      31.883790    -25.851770     -4.650797
  H      33.445001    -24.911064     -3.080740
  H      35.914319    -24.739764     -3.213758
  H      36.559267    -26.329792     -3.640745
  H      38.462311    -24.219485     -5.823888
  H      40.412625    -25.594241     -5.962785
  H      38.288412    -24.544990     -2.804482
  H      40.390795    -23.304124     -4.588307
  H      41.800704    -25.171266     -4.064180
  H      40.784984    -25.485122     -1.952353
  H      33.436556    -26.946127     -1.794610
  H      40.121608    -22.519389     -2.385895
  H      30.774783    -28.458140     -4.616531
  H      30.971410    -26.019511     -2.646925
  H      37.161017    -22.695326     -3.838825
  H      33.913907    -28.589426     -6.190033
  H      40.405817    -27.077832     -4.995866
40
Coordinates from ORCA-job 21 Relaxed Surface Scan Step 3
  C      33.372874    -28.403229     -5.006056
  C      34.936821    -26.633143     -4.959256
  O      34.680624    -27.991215     -4.769648
  C      32.410913    -27.675898     -4.082675
  O      31.116184    -28.087699     -4.381002
  C      32.570848    -26.178148     -4.275527
  O      31.746315    -25.532956     -3.335738
  C      34.027863    -25.748266     -4.105359
  O      34.407829    -25.830111     -2.764993
  C      36.409122    -26.433628     -4.662272
  O      36.678926    -25.071486     -4.858118
  C      37.972287    -24.600582     -4.813482
  C      40.200324    -25.163719     -5.353256
  O      38.845482    -25.515876     -5.370729
  C      38.369247    -24.332347     -3.363529
  O      37.534217    -23.386156     -2.771675
  C      39.793980    -23.821396     -3.292960
  O      40.212161    -23.654377     -1.974466
  C      40.721509    -24.827242     -3.965948
  O      40.802747    -25.995180     -3.215117
  H      33.083430    -28.223220     -6.048404
  H      34.756417    -26.365051     -6.008217
  H      32.674150    -27.920198     -3.049717
  H      32.241440    -25.938489     -5.291000
  H      34.137721    -24.718812     -4.460963
  H      36.614669    -26.745410     -3.639027
  H      36.994385    -27.050150     -5.338041
  H      37.973655    -23.662302     -5.378006
  H      40.369911    -24.307928     -6.016979
  H      38.325164    -25.281004     -2.825088
  H      39.848088    -22.868200     -3.832269
  H      41.713197    -24.374470     -4.077278
  H      40.956401    -25.757258     -2.311829
  H      33.681496    -25.547450     -2.228279
  H      39.537608    -23.193100     -1.496742
  H      30.512149    -27.623831     -3.821262
  H      31.514801    -24.667386     -3.634190
  H      36.654769    -23.734692     -2.733618
  H      33.324524    -29.474411     -4.827452
  H      40.749026    -26.014286     -5.747521
40
Coordinates from ORCA-job 21 Relaxed Surface Scan Step 4
  C      33.374220    -28.393063     -4.928744
  C      34.950024    -26.640164     -5.118656
  O      34.702772    -27.987437     -4.853196
  C      32.528890    -27.621871     -3.930230
  O      31.207159    -28.034766     -4.057296
  C      32.668716    -26.134652     -4.203845
  O      31.959626    -25.444726     -3.203824
  C      34.135236    -25.702008     -4.224798
  O      34.660825    -25.689753     -2.928362
  C      36.443599    -26.451573     -4.952624
  O      36.705880    -25.089470     -5.137574
  C      37.978921    -24.607690     -4.940126
  C      40.258059    -25.114848     -5.282226
  O      38.918465    -25.486499     -5.449379
  C      38.229010    -24.414758     -3.444732
  O      37.303451    -23.545102     -2.873163
  C      39.622630    -23.866006     -3.217187
  O      39.908646    -23.747158     -1.858786
  C      40.637431    -24.819814     -3.839909
  O      40.684355    -26.013986     -3.127947
  H      32.971299    -28.247166     -5.938175
  H      34.675142    -26.411482     -6.156429
  H      32.911372    -27.826681     -2.925995
  H      32.224453    -25.937313     -5.183821
  H      34.202009    -24.698328     -4.654239
  H      36.728595    -26.792485     -3.958999
  H      36.970286    -27.056178     -5.686905
  H      38.021457    -23.642981     -5.455715
  H      40.476163    -24.232765     -5.895607
  H      38.180192    -25.395701     -2.970247
  H      39.700288    -22.888537     -3.708222
  H      41.621885    -24.338409     -3.842044
  H      40.742851    -25.806834     -2.206059
  H      33.977741    -25.421583     -2.330028
  H      39.168594    -23.342527     -1.428863
  H      30.673713    -27.543506     -3.451092
  H      31.693683    -24.591807     -3.510302
  H      36.457366    -23.972980     -2.856484
  H      33.338262    -29.456480     -4.706430
  H      40.860010    -25.941216     -5.649424
40
Coordinates from ORCA-job 21 Relaxed Surface Scan Step 5
  C      33.385005    -28.393592     -4.846307
  C      34.961324    -26.661123     -5.161177
  O      34.716837    -27.992044     -4.821035
  C      32.569035    -27.572917     -3.863032
  O      31.241689    -27.979189     -3.941636
  C      32.713157    -26.099121     -4.201672
  O      32.039524    -25.364245     -3.209496
  C      34.181579    -25.679842     -4.282883
  O      34.742089    -25.621282     -3.000039
  C      36.461721    -26.476477     -5.058179
  O      36.732535    -25.122284     -5.279493
  C      37.978240    -24.627973     -4.977660
  C      40.279392    -25.041530     -5.272904
  O      38.961545    -25.460218     -5.486222
  C      38.167680    -24.495022     -3.466895
  O      37.197519    -23.681733     -2.888628
  C      39.534854    -23.905759     -3.178142
  O      39.777253    -23.833595     -1.807988
  C      40.606451    -24.789897     -3.809315
  O      40.684043    -26.009787     -3.144783
  H      32.958312    -28.290905     -5.851165
  H      34.647052    -26.479728     -6.197153
  H      32.973189    -27.738675     -2.860009
  H      32.242186    -25.937221     -5.175527
  H      34.244912    -24.693762     -4.750639
  H      36.777922    -26.802793     -4.069883
  H      36.959181    -27.100988     -5.797367
  H      38.024749    -23.638336     -5.443142
  H      40.475251    -24.127283     -5.845503
  H      38.144977    -25.494209     -3.031081
  H      39.586410    -22.905662     -3.624993
  H      41.569077    -24.268279     -3.761762
  H      40.706736    -25.838426     -2.214034
  H      34.070218    -25.347168     -2.391120
  H      39.009165    -23.475584     -1.385859
  H      30.726525    -27.461271     -3.341831
  H      31.778817    -24.517854     -3.538112
  H      36.372535    -24.151810     -2.880902
  H      33.349417    -29.445588     -4.575131
  H      40.925175    -25.827133     -5.654985
40
Coordinates from ORCA-job 21 Relaxed Surface Scan Step 6
  C      33.368708    -28.397847     -4.775222
  C      34.968108    -26.701553     -5.147764
  O      34.704884    -28.010301     -4.743580
  C      32.545562    -27.524150     -3.844975
  O      31.213546    -27.911578     -3.936996
  C      32.722354    -26.066843     -4.237058
  O      32.048279    -25.284387     -3.282463
  C      34.199589    -25.678579     -4.309410
  O      34.741012    -25.603146     -3.018399
  C      36.472640    -26.530842     -5.061166
  O      36.764168    -25.191227     -5.337415
  C      37.979263    -24.672806     -4.965485
  C      40.290821    -24.933579     -5.299974
  O      39.003055    -25.438264     -5.501274
  C      38.160230    -24.588463     -3.450966
  O      37.162359    -23.833711     -2.842621
  C      39.499291    -23.936600     -3.152711
  O      39.752007    -23.907489     -1.782876
  C      40.619713    -24.720247     -3.830369
  O      40.784601    -25.959429     -3.219459
  H      32.961705    -28.335636     -5.791383
  H      34.650663    -26.562299     -6.189295
  H      32.924484    -27.656054     -2.827279
  H      32.269525    -25.932031     -5.223512
  H      34.291018    -24.705601     -4.798894
  H      36.787868    -26.824066     -4.062671
  H      36.958994    -27.191330     -5.776991
  H      37.997299    -23.661110     -5.383392
  H      40.408619    -23.985533     -5.837975
  H      38.191228    -25.599337     -3.043315
  H      39.482861    -22.917003     -3.555747
  H      41.545622    -24.137381     -3.766852
  H      40.805530    -25.826489     -2.282464
  H      34.067329    -25.295459     -2.427371
  H      38.971373    -23.605590     -1.340439
  H      30.694604    -27.364102     -3.367471
  H      31.814474    -24.443001     -3.642783
  H      36.349759    -24.326519     -2.849001
  H      33.315429    -29.436027     -4.457792
  H      40.984702    -25.654695     -5.722874
40
Coordinates from ORCA-job 21 Relaxed Surface Scan Step 7
  C      33.329805    -28.399781     -4.713942
  C      34.972656    -26.755086     -5.112213
  O      34.672363    -28.037173     -4.654368
  C      32.495025    -27.471089     -3.849482
  O      31.157929    -27.829430     -3.978535
  C      32.723968    -26.033489     -4.286005
  O      32.043060    -25.201275     -3.379751
  C      34.213064    -25.689159     -4.322458
  O      34.715895    -25.609564     -3.015992
  C      36.481258    -26.610355     -5.020172
  O      36.802889    -25.292342     -5.358774
  C      37.984075    -24.735944     -4.937867
  C      40.292015    -24.800112     -5.337263
  O      39.049298    -25.412955     -5.512369
  C      38.179663    -24.694599     -3.424145
  O      37.158897    -24.008324     -2.774491
  C      39.482085    -23.965106     -3.130381
  O      39.766968    -23.977735     -1.766624
  C      40.644242    -24.623170     -3.868138
  O      40.924947    -25.870564     -3.319498
  H      32.957870    -28.373037     -5.744875
  H      34.669502    -26.651469     -6.162089
  H      32.831332    -27.573553     -2.813760
  H      32.306239    -25.920191     -5.290484
  H      34.349267    -24.728813     -4.825976
  H      36.782550    -26.862828     -4.006445
  H      36.959387    -27.314919     -5.699449
  H      37.949821    -23.706447     -5.309107
  H      40.303741    -23.823978     -5.836261
  H      38.279749    -25.712535     -3.045303
  H      39.376863    -22.932802     -3.484161
  H      41.520224    -23.968379     -3.796849
  H      40.958153    -25.778551     -2.378014
  H      34.041880    -25.250479     -2.454861
  H      38.981535    -23.741270     -1.293988
  H      30.632338    -27.251672     -3.446252
  H      31.848315    -24.364841     -3.773325
  H      36.356553    -24.518204     -2.796882
  H      33.244565    -29.422177     -4.355085
  H      41.033293    -25.436907     -5.812052
40
Coordinates from ORCA-job 21 Relaxed Surface Scan Step 8
  C      33.277011    -28.398439     -4.658565
  C      34.977214    -26.817237     -5.063622
  O      34.626277    -28.068855     -4.561779
  C      32.434750    -27.412950     -3.867004
  O      31.094126    -27.737036     -4.043161
  C      32.727086    -25.999640     -4.343771
  O      32.039670    -25.114465     -3.494617
  C      34.226969    -25.706258     -4.330357
  O      34.680184    -25.622237     -3.006251
  C      36.489129    -26.706898     -4.948462
  O      36.847969    -25.418765     -5.355897
  C      37.990765    -24.808410     -4.904076
  C      40.274814    -24.646552     -5.376155
  O      39.093047    -25.373955     -5.527949
  C      38.219127    -24.810867     -3.395031
  O      37.180773    -24.208021     -2.692772
  C      39.474767    -23.996382     -3.107576
  O      39.806036    -24.052737     -1.755392
  C      40.664688    -24.509029     -3.912506
  O      41.074883    -25.751280     -3.439056
  H      32.945931    -28.405468     -5.703577
  H      34.701072    -26.745712     -6.123505
  H      32.721427    -27.485456     -2.814187
  H      32.353263    -25.908672     -5.367672
  H      34.416586    -24.761479     -4.845783
  H      36.767445    -26.911163     -3.917340
  H      36.958995    -27.460863     -5.579529
  H      37.882381    -23.766826     -5.224923
  H      40.168010    -23.651872     -5.824810
  H      38.399250    -25.831723     -3.053750
  H      39.270347    -22.960571     -3.402314
  H      41.479705    -23.780458     -3.832319
  H      41.130703    -25.704296     -2.495378
  H      34.013440    -25.196231     -2.484531
  H      39.024023    -23.889573     -1.247434
  H      30.563666    -27.128595     -3.551440
  H      31.886943    -24.287452     -3.924906
  H      36.386270    -24.728822     -2.738434
  H      33.150059    -29.402257     -4.261601
  H      41.054475    -25.182802     -5.910253
40
Coordinates from ORCA-job 21 Relaxed Surface Scan Step 9
  C      33.219362    -28.393406     -4.606966
  C      34.984277    -26.886110     -5.012289
  O      34.574654    -28.102937     -4.472892
  C      32.380837    -27.350396     -3.888240
  O      31.037978    -27.637372     -4.107442
  C      32.740583    -25.967056     -4.405038
  O      32.054806    -25.026388     -3.616545
  C      34.248294    -25.727081     -4.342988
  O      34.654788    -25.626746     -3.005422
  C      36.496973    -26.813909     -4.860390
  O      36.898853    -25.564832     -5.340573
  C      37.993598    -24.882045     -4.870363
  C      40.232267    -24.485346     -5.407148
  O      39.122301    -25.318790     -5.548171
  C      38.266749    -24.926700     -3.369783
  O      37.220558    -24.413805     -2.609140
  C      39.469641    -24.032122     -3.083380
  O      39.854280    -24.132475     -1.747975
  C      40.668370    -24.392298     -3.953585
  O      41.203837    -25.616592     -3.567041
  H      32.926817    -28.433055     -5.662656
  H      34.743439    -26.846892     -6.082292
  H      32.622266    -27.390545     -2.822607
  H      32.409221    -25.902126     -5.445451
  H      34.491772    -24.804372     -4.875548
  H      36.746131    -26.963376     -3.812347
  H      36.957753    -27.619114     -5.432651
  H      37.794373    -23.838517     -5.138570
  H      40.009226    -23.483655     -5.793126
  H      38.525766    -25.945577     -3.074380
  H      39.168665    -23.003369     -3.311898
  H      41.418003    -23.598303     -3.857619
  H      41.289826    -25.617441     -2.624513
  H      34.005765    -25.129477     -2.526316
  H      39.083438    -24.047121     -1.205198
  H      30.509243    -26.996273     -3.657150
  H      31.941348    -24.214607     -4.086034
  H      36.426917    -24.931738     -2.686833
  H      33.045259    -29.375564     -4.175287
  H      41.035041    -24.912777     -6.001838
40
Coordinates from ORCA-job 21 Relaxed Surface Scan Step 10
  C      33.163427    -28.384349     -4.561024
  C      34.994876    -26.957174     -4.961760
  O      34.523366    -28.136500     -4.392250
  C      32.339745    -27.286196     -3.910456
  O      30.995367    -27.535071     -4.164535
  C      32.765837    -25.937540     -4.466445
  O      32.090351    -24.942191     -3.738590
  C      34.278237    -25.749625     -4.361620
  O      34.645151    -25.618488     -3.015856
  C      36.505083    -26.924035     -4.764226
  O      36.956780    -25.723626     -5.316358
  C      37.988946    -24.952613     -4.836425
  C      40.164118    -24.331438     -5.426756
  O      39.127630    -25.252986     -5.568493
  C      38.315263    -25.031932     -3.348008
  O      37.272289    -24.607199     -2.528885
  C      39.465849    -24.068743     -3.059858
  O      39.907922    -24.208615     -1.745990
  C      40.653689    -24.284144     -3.988822
  O      41.298451    -25.480778     -3.694265
  H      32.904227    -28.454247     -5.623836
  H      34.793939    -26.951107     -6.040521
  H      32.544583    -27.293070     -2.836554
  H      32.471618    -25.901749     -5.519376
  H      34.572063    -24.855732     -4.917706
  H      36.723341    -27.016365     -3.702705
  H      36.953699    -27.778052     -5.271964
  H      37.689099    -23.920253     -5.052414
  H      39.837476    -23.333454     -5.742423
  H      38.644880    -26.044060     -3.101410
  H      39.079700    -23.055981     -3.220961
  H      41.341539    -23.438544     -3.872717
  H      41.421798    -25.527432     -2.757101
  H      34.016936    -25.058937     -2.579894
  H      39.155789    -24.197891     -1.171355
  H      30.475270    -26.860877     -3.754335
  H      32.011364    -24.150394     -4.247454
  H      36.470971    -25.104442     -2.646255
  H      32.940364    -29.342630     -4.099294
  H      40.972246    -24.651841     -6.078788
40
Coordinates from ORCA-job 21 Relaxed Surface Scan Step 11
  C      33.125525    -28.376064     -4.467110
  C      35.006043    -27.029545     -4.925839
  O      34.488257    -28.152600     -4.286900
  C      32.321451    -27.213267     -3.911440
  O      30.974748    -27.445811     -4.168227
  C      32.791116    -25.921491     -4.559114
  O      32.129917    -24.856207     -3.922616
  C      34.305683    -25.761737     -4.442372
  O      34.657074    -25.526670     -3.107082
  C      36.509559    -27.013004     -4.675960
  O      37.005128    -25.854206     -5.275792
  C      37.964019    -25.000265     -4.779264
  C      40.050229    -24.148655     -5.419315
  O      39.082531    -25.137406     -5.584749
  C      38.372429    -25.151303     -3.316273
  O      37.356426    -24.850326     -2.409929
  C      39.475712    -24.137335     -3.011140
  O      39.998888    -24.349559     -1.737265
  C      40.621237    -24.187369     -4.012153
  O      41.362716    -25.353704     -3.858915
  H      32.884919    -28.513312     -5.527756
  H      34.840219    -27.100457     -6.008162
  H      32.511357    -27.146203     -2.836805
  H      32.515383    -25.959577     -5.616968
  H      34.629296    -24.924794     -5.066438
  H      36.689784    -27.058072     -3.604933
  H      36.958460    -27.899074     -5.125157
  H      37.556688    -23.988465     -4.905522
  H      39.629060    -23.157119     -5.624284
  H      38.770482    -26.157564     -3.160880
  H      39.013392    -23.145552     -3.067314
  H      41.254157    -23.305930     -3.856501
  H      41.542052    -25.471307     -2.937162
  H      34.044110    -24.910909     -2.729430
  H      39.282679    -24.431333     -1.123769
  H      30.467028    -26.730309     -3.816699
  H      32.066142    -24.109904     -4.497907
  H      36.514769    -25.235434     -2.623400
  H      32.867203    -29.293544     -3.944872
  H      40.837410    -24.344922     -6.142276
40
Coordinates from ORCA-job 21 Relaxed Surface Scan Step 12
  C      33.104245    -28.342616     -4.303017
  C      35.021745    -27.111882     -4.920767
  O      34.475880    -28.147625     -4.165753
  C      32.349460    -27.100124     -3.862963
  O      30.990414    -27.315071     -4.062285
  C      32.840347    -25.905335     -4.663079
  O      32.220862    -24.754546     -4.143559
  C      34.361092    -25.774087     -4.594642
  O      34.746303    -25.359074     -3.312043
  C      36.521804    -27.115444     -4.653897
  O      37.072813    -25.998246     -5.285887
  C      37.922973    -25.065873     -4.732547
  C      39.899956    -23.950102     -5.356806
  O      39.005402    -24.991986     -5.591330
  C      38.429890    -25.322089     -3.313490
  O      37.451263    -25.284449     -2.315868
  C      39.438686    -24.232478     -2.946983
  O      40.031970    -24.510906     -1.717768
  C      40.538929    -24.076667     -3.985619
  O      41.386661    -25.178723     -3.979551
  H      32.840408    -28.583499     -5.339470
  H      34.853685    -27.297953     -5.989229
  H      32.569417    -26.920895     -2.806791
  H      32.541593    -26.057923     -5.704042
  H      34.692341    -25.039892     -5.333453
  H      36.685185    -27.130831     -3.581715
  H      36.954482    -28.025201     -5.069803
  H      37.395527    -24.100036     -4.736062
  H      39.394600    -22.980224     -5.441385
  H      38.939764    -26.288103     -3.305039
  H      38.882214    -23.289361     -2.891037
  H      41.098207    -23.159887     -3.765267
  H      41.615547    -25.371100     -3.081591
  H      34.126043    -24.715336     -2.997896
  H      39.353728    -24.732908     -1.095548
  H      30.513573    -26.547978     -3.783934
  H      32.157763    -24.081105     -4.802786
  H      36.559858    -25.293572     -2.645125
  H      32.824934    -29.189767     -3.682068
  H      40.663713    -24.007406     -6.127589
40
Coordinates from ORCA-job 21 Relaxed Surface Scan Step 13
  C      33.064460    -28.281863     -4.244952
  C      35.048514    -27.183641     -4.899472
  O      34.444446    -28.160409     -4.108741
  C      32.379861    -26.981047     -3.861422
  O      31.011900    -27.126427     -4.061704
  C      32.940728    -25.847912     -4.704849
  O      32.382648    -24.645063     -4.235564
  C      34.466285    -25.798471     -4.627302
  O      34.861361    -25.344338     -3.360093
  C      36.544020    -27.287295     -4.633553
  O      37.229047    -26.274001     -5.309523
  C      37.897061    -25.217410     -4.725318
  C      39.732549    -23.845189     -5.330855
  O      38.933990    -24.953972     -5.601059
  C      38.477724    -25.452916     -3.326318
  O      37.537562    -25.624702     -2.303521
  C      39.347347    -24.259005     -2.932339
  O      39.981929    -24.501933     -1.717063
  C      40.407224    -23.951308     -3.977019
  O      41.366674    -24.956392     -4.019465
  H      32.790145    -28.550493     -5.271795
  H      34.864924    -27.396276     -5.960545
  H      32.604231    -26.771836     -2.811646
  H      32.640693    -26.024726     -5.741329
  H      34.842153    -25.115669     -5.394920
  H      36.712989    -27.281938     -3.563910
  H      36.891764    -28.244917     -5.017885
  H      37.225041    -24.345398     -4.680254
  H      39.139180    -22.923137     -5.371254
  H      39.106668    -26.342502     -3.376131
  H      38.687008    -23.386689     -2.844309
  H      40.870416    -22.987372     -3.736159
  H      41.631509    -25.150231     -3.131738
  H      34.257591    -24.669957     -3.079149
  H      39.347997    -24.860835     -1.111920
  H      30.577647    -26.323910     -3.815471
  H      32.355608    -23.997128     -4.922244
  H      36.654636    -25.397541     -2.571173
  H      32.734467    -29.084435     -3.590568
  H      40.483283    -23.802017     -6.115151
40
Coordinates from ORCA-job 21 Relaxed Surface Scan Step 14
  C      33.003797    -28.217569     -4.308977
  C      35.077408    -27.232311     -4.867915
  O      34.382220    -28.183319     -4.119953
  C      32.385791    -26.885410     -3.921227
  O      31.020115    -26.940870     -4.174579
  C      33.047127    -25.773318     -4.718281
  O      32.547926    -24.547225     -4.242944
  C      34.569572    -25.820151     -4.584005
  O      34.944491    -25.413707     -3.295000
  C      36.549420    -27.459300     -4.548270
  O      37.386823    -26.567903     -5.225292
  C      37.905446    -25.410819     -4.680752
  C      39.534013    -23.828125     -5.356617
  O      38.869846    -25.029458     -5.593500
  C      38.555336    -25.550151     -3.298709
  O      37.672918    -25.846846     -2.252546
  C      39.276794    -24.251453     -2.940752
  O      39.974485    -24.396425     -1.744424
  C      40.256882    -23.829060     -4.023355
  O      41.332595    -24.706891     -4.084908
  H      32.752438    -28.447972     -5.350882
  H      34.921107    -27.411763     -5.939407
  H      32.582863    -26.711873     -2.859486
  H      32.776102    -25.910239     -5.768614
  H      35.008369    -25.145048     -5.325666
  H      36.689028    -27.441991     -3.474595
  H      36.806156    -28.457553     -4.895859
  H      37.128001    -24.633946     -4.621998
  H      38.830641    -22.986246     -5.387860
  H      39.286687    -26.355194     -3.359876
  H      38.516493    -23.465237     -2.839651
  H      40.603026    -22.811123     -3.809049
  H      41.644303    -24.855684     -3.203675
  H      34.362128    -24.718735     -3.018822
  H      39.419092    -24.847254     -1.123729
  H      30.626577    -26.118575     -3.925177
  H      32.583094    -23.886021     -4.916537
  H      36.792405    -25.541026     -2.435461
  H      32.601591    -29.011655     -3.685234
  H      40.250171    -23.702859     -6.164103
40
Coordinates from ORCA-job 21 Relaxed Surface Scan Step 15
  C      32.948264    -28.164579     -4.435751
  C      35.098934    -27.256826     -4.833985
  O      34.313391    -28.200965     -4.169725
  C      32.368701    -26.824951     -4.018223
  O      31.016606    -26.805987     -4.340130
  C      33.119007    -25.715052     -4.733578
  O      32.651314    -24.485570     -4.235335
  C      34.630073    -25.834360     -4.528158
  O      34.964506    -25.485178     -3.212496
  C      36.530195    -27.570645     -4.411945
  O      37.490889    -26.787741     -5.058826
  C      37.930172    -25.569973     -4.586077
  C      39.330251    -23.848127     -5.385756
  O      38.792496    -25.120470     -5.566159
  C      38.665028    -25.617171     -3.244967
  O      37.858128    -25.990132     -2.162163
  C      39.268819    -24.246483     -2.945806
  O      40.054864    -24.294503     -1.797040
  C      40.127004    -23.744134     -4.097815
  O      41.284936    -24.503123     -4.215653
  H      32.746550    -28.335622     -5.499701
  H      35.014995    -27.396017     -5.919261
  H      32.519654    -26.706020     -2.941426
  H      32.896425    -25.799335     -5.800756
  H      35.123874    -25.153591     -5.229130
  H      36.604595    -27.522371     -3.332255
  H      36.727147    -28.598146     -4.706927
  H      37.093070    -24.865816     -4.487940
  H      38.535745    -23.090835     -5.384694
  H      39.464548    -26.351111     -3.328238
  H      38.439673    -23.539629     -2.803614
  H      40.373855    -22.690747     -3.920217
  H      41.664989    -24.600271     -3.354266
  H      34.394112    -24.780545     -2.936407
  H      39.600057    -24.800230     -1.138154
  H      30.648298    -25.976654     -4.075945
  H      32.745592    -23.803093     -4.881418
  H      36.977899    -25.648242     -2.258420
  H      32.478294    -28.967634     -3.873853
  H      39.980326    -23.658427     -6.235477
40
Coordinates from ORCA-job 21 Relaxed Surface Scan Step 16
  C      32.830516    -28.199861     -4.124522
  C      34.868677    -27.040490     -4.366021
  O      34.043170    -27.819879     -3.554735
  C      32.006930    -26.979670     -4.502387
  O      30.838640    -27.414463     -5.120907
  C      32.820578    -26.085215     -5.421986
  O      32.071528    -24.917900     -5.655986
  C      34.174485    -25.751316     -4.798915
  O      34.004009    -24.924406     -3.688361
  C      36.136434    -26.788618     -3.575115
  O      37.023914    -26.078532     -4.387516
  C      37.872904    -25.163016     -3.823080
  C      38.986789    -23.180939     -4.450358
  O      38.125668    -24.221047     -4.800420
  C      39.187117    -25.802768     -3.380121
  O      39.014629    -26.757092     -2.369379
  C      40.183304    -24.740334     -2.935175