31
Coordinates from ORCA-job 8 Relaxed Surface Scan Step 1
  C      -1.982545      0.163437     -0.014544
  C      -0.112231      1.610249      0.006540
  C      -0.662934      2.421406      1.179596
  C      -2.181621      2.284612      1.246783
  C      -2.572290      0.817368      1.231892
  H      -2.381921      0.673810     -0.902116
  H      -0.420275      3.476422      1.007304
  H      -2.623589      2.768237      0.367768
  H      -2.135162      0.335857      2.104135
  H      -0.464731      2.100720     -0.911288
  O      -0.598231      0.292264      0.020622
  O      -0.087775      1.980209      2.365569
  H      -0.554947      2.374178      3.088088
  O      -2.618234      2.914830      2.410808
  H      -3.534873      2.718554      2.537884
  O      -3.971953      0.736493      1.263481
  H      -4.236117     -0.041369      1.728246
  C       1.400789      1.541722     -0.015315
  H       1.730746      0.983516     -0.891258
  H       1.830234      2.543747     -0.056118
  H       1.762756      1.041363      0.879782
  C      -2.346801     -1.299697     -0.170835
  H      -3.358025     -1.376706     -0.566787
  H      -1.657577     -1.744013     -0.888913
  O      -2.239650     -1.957115      1.069937
  C      -2.552600     -3.246591      1.235796
  O      -2.004849     -3.884392      2.058634
  C      -3.628868     -3.816088      0.342258
  H      -4.529344     -3.201818      0.369268
  H      -3.287114     -3.866343     -0.691995
  H      -3.859247     -4.819320      0.687157
31
Coordinates from ORCA-job 8 Relaxed Surface Scan Step 2
  C      -2.005576      0.174799     -0.006898
  C      -0.118469      1.599736      0.003950
  C      -0.654619      2.418779      1.178274
  C      -2.174511      2.299350      1.253055
  C      -2.581608      0.836608      1.241759
  H      -2.402942      0.688829     -0.893226
  H      -0.400818      3.470689      1.002890
  H      -2.615098      2.787133      0.375625
  H      -2.145079      0.350825      2.111859
  H      -0.469280      2.093097     -0.912989
  O      -0.619628      0.287266      0.021533
  O      -0.078724      1.973136      2.362127
  H      -0.538629      2.372266      3.086470
  O      -2.598265      2.935593      2.418476
  H      -3.516203      2.748955      2.550700
  O      -3.981645      0.770709      1.280781
  H      -4.251076     -0.005648      1.745244
  C       1.393601      1.513771     -0.024160
  H       1.713696      0.951182     -0.900969
  H       1.834516      2.510694     -0.067421
  H       1.753297      1.009973      0.869923
  C      -2.387489     -1.284463     -0.158974
  H      -3.398910     -1.350584     -0.556009
  H      -1.702379     -1.739343     -0.874159
  O      -2.292207     -1.936042      1.085677
  C      -2.572537     -3.232299      1.254403
  O      -2.054528     -3.834797      2.122035
  C      -3.570481     -3.852647      0.306007
  H      -4.500223     -3.283139      0.286783
  H      -3.173682     -3.882276     -0.709071
  H      -3.769481     -4.866610      0.638681
31
Coordinates from ORCA-job 8 Relaxed Surface Scan Step 3
  C      -2.029058      0.186033      0.000314
  C      -0.125779      1.589456      0.001001
  C      -0.646707      2.414946      1.177685
  C      -2.167474      2.312734      1.260309
  C      -2.590958      0.854696      1.251705
  H      -2.424992      0.703985     -0.884339
  H      -0.381949      3.463875      1.000613
  H      -2.607116      2.805266      0.385046
  H      -2.155233      0.364292      2.119537
  H      -0.475569      2.086443     -0.914362
  O      -0.641617      0.282697      0.021558
  O      -0.069742      1.963203      2.358693
  H      -0.522135      2.366849      3.085277
  O      -2.577932      2.953948      2.427756
  H      -3.496806      2.776209      2.565737
  O      -3.991246      0.804263      1.298334
  H      -4.266359      0.028637      1.760874
  C       1.385077      1.486471     -0.034692
  H       1.694453      0.920052     -0.912906
  H       1.836934      2.478359     -0.080569
  H       1.743621      0.979021      0.857791
  C      -2.427808     -1.269411     -0.148950
  H      -3.440806     -1.323794     -0.543783
  H      -1.747903     -1.731445     -0.864229
  O      -2.340943     -1.917438      1.097615
  C      -2.594451     -3.218536      1.271828
  O      -2.116756     -3.786047      2.185110
  C      -3.507473     -3.885582      0.271975
  H      -4.455814     -3.353299      0.192111
  H      -3.049858     -3.906454     -0.717338
  H      -3.686579     -4.903891      0.602676
31
Coordinates from ORCA-job 8 Relaxed Surface Scan Step 4
  C      -2.056722      0.199293      0.007403
  C      -0.135026      1.577097     -0.002867
  C      -0.638049      2.409072      1.177029
  C      -2.159551      2.326825      1.269135
  C      -2.601667      0.874375      1.262900
  H      -2.450847      0.723166     -0.874514
  H      -0.360564      3.454444      0.998359
  H      -2.598246      2.825547      0.396906
  H      -2.166018      0.378022      2.127318
  H      -0.483671      2.078787     -0.916080
  O      -0.667876      0.277047      0.020217
  O      -0.059669      1.949647      2.354359
  H      -0.503729      2.357361      3.083830
  O      -2.554081      2.972758      2.439448
  H      -3.473504      2.804006      2.585044
  O      -4.001815      0.841389      1.319524
  H      -4.282734      0.065196      1.777874
  C       1.374117      1.454347     -0.047506
  H       1.670922      0.884214     -0.927668
  H       1.838642      2.440241     -0.095854
  H       1.731278      0.942105      0.842799
  C      -2.475927     -1.250835     -0.139572
  H      -3.490511     -1.291231     -0.532016
  H      -1.803735     -1.722902     -0.855140
  O      -2.399770     -1.895171      1.109203
  C      -2.623075     -3.200557      1.290712
  O      -2.201106     -3.729379      2.253456
  C      -3.428475     -3.919131      0.236386
  H      -4.391440     -3.431368      0.082344
  H      -2.900510     -3.927602     -0.717205
  H      -3.585622     -4.941224      0.566554
31
Coordinates from ORCA-job 8 Relaxed Surface Scan Step 5
  C      -2.090842      0.214982      0.014823
  C      -0.147722      1.562267     -0.008372
  C      -0.628425      2.400119      1.176651
  C      -2.150299      2.341633      1.280769
  C      -2.614713      0.896223      1.275979
  H      -2.483487      0.746370     -0.863188
  H      -0.335909      3.441279      0.997329
  H      -2.588153      2.848739      0.412952
  H      -2.179193      0.391800      2.135683
  H      -0.495563      2.070750     -0.918101
  O      -0.700656      0.270510      0.016721
  O      -0.047928      1.929739      2.348602
  H      -0.481005      2.341788      3.082256
  O      -2.525142      2.991515      2.455327
  H      -3.445177      2.834185      2.609777
  O      -4.014344      0.884148      1.344907
  H      -4.302529      0.108316      1.799649
  C       1.358937      1.416103     -0.065004
  H       1.640030      0.842856     -0.948319
  H       1.838354      2.394720     -0.115560
  H       1.715074      0.897089      0.821792
  C      -2.533795     -1.228568     -0.130334
  H      -3.551210     -1.252581     -0.517061
  H      -1.872040     -1.710340     -0.848509
  O      -2.466769     -1.870381      1.119931
  C      -2.661119     -3.178567      1.310042
  O      -2.319160     -3.666924      2.324797
  C      -3.326849     -3.952150      0.199234
  H      -4.287640     -3.508484     -0.063032
  H      -2.705182     -3.959270     -0.695991
  H      -3.476522     -4.972325      0.538629
31
Coordinates from ORCA-job 8 Relaxed Surface Scan Step 6
  C      -2.139157      0.235617      0.023610
  C      -0.167495      1.540181     -0.016903
  C      -0.617115      2.384866      1.175434
  C      -2.138757      2.358889      1.296586
  C      -2.633300      0.923579      1.293235
  H      -2.529505      0.778297     -0.848413
  H      -0.304003      3.419877      0.995249
  H      -2.575393      2.878210      0.435411
  H      -2.197068      0.407558      2.145593
  H      -0.514083      2.058529     -0.921487
  O      -0.747884      0.260332      0.010398
  O      -0.033772      1.899049      2.339672
  H      -0.452292      2.315830      3.079124
  O      -2.486095      3.012788      2.477330
  H      -3.406068      2.869110      2.645193
  O      -4.031395      0.939619      1.380743
  H      -4.328856      0.163517      1.829450
  C       1.334986      1.361929     -0.090290
  H       1.594220      0.785278     -0.978089
  H       1.834724      2.330162     -0.143586
  H       1.689582      0.833143      0.791352
  C      -2.615533     -1.197522     -0.119711
  H      -3.637921     -1.197586     -0.494793
  H      -1.973181     -1.692214     -0.845991
  O      -2.555925     -1.838938      1.130360
  C      -2.714941     -3.150008      1.329233
  O      -2.486419     -3.596034      2.394271
  C      -3.179121     -3.982414      0.160415
  H      -4.094064     -3.579146     -0.273288
  H      -2.417586     -4.002747     -0.619512
  H      -3.355559     -4.994211      0.511778
31
Coordinates from ORCA-job 8 Relaxed Surface Scan Step 7
  C      -2.199254      0.258929      0.032907
  C      -0.193342      1.509428     -0.028293
  C      -0.604557      2.360544      1.173341
  C      -2.124720      2.375289      1.314772
  C      -2.657469      0.953808      1.312146
  H      -2.585818      0.815781     -0.831709
  H      -0.265779      3.387519      0.993667
  H      -2.558695      2.910275      0.461872
  H      -2.223107      0.422730      2.156069
  H      -0.537729      2.040643     -0.926167
  O      -0.807654      0.245391      0.001552
  O      -0.019314      1.853464      2.327632
  H      -0.417245      2.277468      3.074349
  O      -2.438097      3.032635      2.503025
  H      -3.358781      2.910986      2.684129
  O      -4.052763      1.005436      1.419594
  H      -4.363901      0.230890      1.862227
  C       1.302740      1.291447     -0.122354
  H       1.534848      0.711874     -1.015771
  H       1.827393      2.246221     -0.178648
  H       1.654879      0.749938      0.752546
  C      -2.714626     -1.160909     -0.108975
  H      -3.741127     -1.135891     -0.474061
  H      -2.090654     -1.670406     -0.839963
  O      -2.671170     -1.802669      1.141727
  C      -2.785713     -3.117395      1.339506
  O      -2.716463     -3.535535      2.438104
  C      -2.985468     -3.994469      0.129194
  H      -3.826376     -3.656172     -0.475720
  H      -2.092898     -3.983546     -0.497210
  H      -3.166118     -5.008163      0.472887
31
Coordinates from ORCA-job 8 Relaxed Surface Scan Step 8
  C      -2.268901      0.284492      0.039738
  C      -0.224238      1.469491     -0.043072
  C      -0.590763      2.324700      1.170260
  C      -2.107636      2.386535      1.335761
  C      -2.685054      0.982649      1.331175
  H      -2.648435      0.860766     -0.814989
  H      -0.222268      3.341715      0.992566
  H      -2.537660      2.941980      0.494027
  H      -2.253016      0.432050      2.163772
  H      -0.564952      2.017114     -0.932355
  O      -0.878244      0.225508     -0.011425
  O      -0.004456      1.790841      2.312071
  H      -0.378727      2.221094      3.067457
  O      -2.380933      3.043790      2.533873
  H      -3.300940      2.944884      2.731893
  O      -4.075150      1.075803      1.462972
  H      -4.403605      0.297195      1.886373
  C       1.262639      1.205210     -0.161006
  H       1.463119      0.624442     -1.061314
  H       1.816162      2.143367     -0.219655
  H       1.610881      0.647617      0.705330
  C      -2.828570     -1.118050     -0.106171
  H      -3.853538     -1.066658     -0.475106
  H      -2.215468     -1.642445     -0.834391
  O      -2.822422     -1.762656      1.144402
  C      -2.881964     -3.081708      1.333980
  O      -3.022497     -3.496352      2.427288
  C      -2.748088     -3.973566      0.125104
  H      -3.508453     -3.747883     -0.622616
  H      -1.768936     -3.843994     -0.336947
  H      -2.856864     -5.002389      0.453383
31
Coordinates from ORCA-job 8 Relaxed Surface Scan Step 9
  C      -2.602118      0.326065     -0.025463
  C      -0.368613      1.118610     -0.059117
  C      -0.575805      1.958877      1.200551
  C      -2.054760      2.296384      1.374885
  C      -2.886880      1.028619      1.299905
  H      -2.867087      1.000064     -0.851212
  H      -0.020677      2.896128      1.079139
  H      -2.367718      2.965034      0.564461
  H      -2.573825      0.370603      2.108706
  H      -0.602205      1.763063     -0.916656
  O      -1.243286      0.015775     -0.085876
  O      -0.108627      1.258613      2.306794
  H      -0.394722      1.709561      3.088345
  O      -2.205311      2.930111      2.606320
  H      -3.128347      2.998284      2.803524
  O      -4.233901      1.377816      1.439085
  H      -4.713900      0.653997      1.812530
  C       1.044679      0.592834     -0.202303
  H       1.138086      0.032518     -1.132681
  H       1.759508      1.416490     -0.219117
  H       1.286932     -0.060177      0.633145
  C      -3.418671     -0.938387     -0.221853
  H      -4.440934     -0.664995     -0.470754
  H      -3.009570     -1.504286     -1.055403
  O      -3.507889     -1.706364      0.951580
  C      -2.701694     -2.715239      1.306071
  O      -2.796677     -3.153988      2.394878
  C      -1.744628     -3.256136      0.276066
  H      -2.289414     -3.641483     -0.587060
  H      -1.064755     -2.477671     -0.062455
  H      -1.186172     -4.065178      0.736342
31
Coordinates from ORCA-job 8 Relaxed Surface Scan Step 10
  C      -2.592340      0.327119     -0.031717
  C      -0.369151      1.142474     -0.092848
  C      -0.563395      1.961953      1.182705
  C      -2.042556      2.282321      1.387788
  C      -2.864051      1.007993      1.307048
  H      -2.871753      1.012639     -0.842758
  H      -0.019223      2.906300      1.067591
  H      -2.376140      2.960590      0.593829
  H      -2.530787      0.342135      2.101402
  H      -0.626390      1.795968     -0.936658
  O      -1.231445      0.030465     -0.117663
  O      -0.071653      1.248718      2.270507
  H      -0.343200      1.689611      3.062926
  O      -2.177134      2.894785      2.631792
  H      -3.097225      2.954358      2.845087
  O      -4.211260      1.340959      1.472036
  H      -4.682659      0.596370      1.815310
  C       1.047370      0.636195     -0.270256
  H       1.127474      0.084377     -1.206867
  H       1.750845      1.469351     -0.295921
  H       1.316779     -0.020159      0.554205
  C      -3.407144     -0.937904     -0.240545
  H      -4.415867     -0.665361     -0.541591
  H      -2.962422     -1.518396     -1.044991
  O      -3.560945     -1.692275      0.937072
  C      -2.856200     -2.774860      1.288892
  O      -3.163747     -3.353111      2.267854
  C      -1.723808     -3.210208      0.395240
  H      -2.116258     -3.593333     -0.548296
  H      -1.051829     -2.383669      0.178892
  H      -1.192869     -4.009861      0.902313
31
Coordinates from ORCA-job 8 Relaxed Surface Scan Step 11
  C      -2.591568      0.328643     -0.043456
  C      -0.375778      1.159857     -0.129829
  C      -0.550845      1.949147      1.167481
  C      -2.027594      2.258043      1.405659
  C      -2.846779      0.983069      1.311032
  H      -2.885702      1.028972     -0.836083
  H      -0.012606      2.898369      1.065992
  H      -2.377789      2.952017      0.632787
  H      -2.501657      0.303401      2.088772
  H      -0.655263      1.829342     -0.953780
  O      -1.230335      0.042819     -0.159255
  O      -0.037939      1.212037      2.229809
  H      -0.294109      1.635905      3.036515
  O      -2.142719      2.842259      2.665167
  H      -3.059268      2.895314      2.894956
  O      -4.191837      1.309728      1.499540
  H      -4.663202      0.549676      1.807855
  C       1.040580      0.669032     -0.347758
  H       1.103293      0.132643     -1.294524
  H       1.735761      1.509051     -0.376726
  H       1.335927      0.002352      0.459369
  C      -3.405737     -0.936153     -0.267630
  H      -4.398201     -0.663646     -0.618924
  H      -2.927290     -1.529166     -1.043279
  O      -3.623062     -1.682687      0.907767
  C      -2.991531     -2.815874      1.243624
  O      -3.480927     -3.524135      2.047279
  C      -1.688719     -3.132590      0.554881
  H      -1.884111     -3.501015     -0.453832
  H      -1.048294     -2.258257      0.480432
  H      -1.201675     -3.922615      1.118533
31
Coordinates from ORCA-job 8 Relaxed Surface Scan Step 12
  C      -2.623091      0.326420     -0.100060
  C      -0.401495      1.141835     -0.188964
  C      -0.538062      1.848955      1.158423
  C      -2.002931      2.181191      1.431506
  C      -2.855099      0.933691      1.281008
  H      -2.930463      1.057649     -0.858850
  H       0.026402      2.787043      1.115780
  H      -2.343713      2.923496      0.700683
  H      -2.530321      0.216927      2.033759
  H      -0.694376      1.863687     -0.962670
  O      -1.267573      0.037615     -0.259651
  O      -0.036773      1.025673      2.162876
  H      -0.262113      1.406490      2.999733
  O      -2.089661      2.699125      2.722096
  H      -3.002169      2.771973      2.962302
  O      -4.190838      1.287965      1.484072
  H      -4.687072      0.524905      1.742008
  C       1.003835      0.653472     -0.474484
  H       1.034343      0.170677     -1.451132
  H       1.704986      1.489096     -0.477266
  H       1.318346     -0.060306      0.283665
  C      -3.449202     -0.928341     -0.351497
  H      -4.426613     -0.639363     -0.729056
  H      -2.959234     -1.525121     -1.118184
  O      -3.723032     -1.689581      0.804177
  C      -3.054032     -2.788049      1.194604
  O      -3.629488     -3.621158      1.795232
  C      -1.587958     -2.874868      0.861633
  H      -1.428521     -2.914316     -0.214884
  H      -1.056086     -2.000810      1.230362
  H      -1.196972     -3.780434      1.315155
31
Coordinates from ORCA-job 8 Relaxed Surface Scan Step 13
  C      -2.647456      0.328004     -0.093095
  C      -0.415225      1.116106     -0.201166
  C      -0.536595      1.838063      1.139826
  C      -1.995672      2.191851      1.415185
  C      -2.864155      0.953819      1.282185
  H      -2.955470      1.052009     -0.858979
  H       0.039801      2.768228      1.085221
  H      -2.329996      2.930294      0.677499
  H      -2.547311      0.239943      2.040449
  H      -0.700354      1.835215     -0.980366
  O      -1.296447      0.023604     -0.258727
  O      -0.041854      1.019432      2.151664
  H      -0.255745      1.415013      2.984628
  O      -2.070458      2.725583      2.700276
  H      -2.981050      2.816854      2.941248
  O      -4.194762      1.329433      1.487099
  H      -4.699221      0.580388      1.767880
  C       0.982051      0.605007     -0.486316
  H       1.004105      0.117306     -1.460793
  H       1.696328      1.429396     -0.493657
  H       1.285313     -0.110259      0.274991
  C      -3.485337     -0.920779     -0.322128
  H      -4.480774     -0.624095     -0.643090
  H      -3.037166     -1.503921     -1.125608
  O      -3.687114     -1.706705      0.832846
  C      -3.028404     -2.858496      1.078106
  O      -3.633238     -3.816463      1.395014
  C      -1.528389     -2.822443      0.963676
  H      -1.218293     -2.616764     -0.058861
  H      -1.117621     -2.024105      1.579351
  H      -1.138468     -3.785975      1.278020
31
Coordinates from ORCA-job 8 Relaxed Surface Scan Step 14
  C      -2.414814      0.378425     -0.146306
  C      -0.397098      1.608437     -0.339275
  C      -0.557651      2.230098      1.046980
  C      -2.030598      2.252253      1.439002
  C      -2.642172      0.870983      1.282485
  H      -2.935241      1.062108     -0.831371
  H      -0.198865      3.264787      1.001699
  H      -2.566028      2.937755      0.772116
  H      -2.135499      0.191758      1.967248
  H      -0.866463      2.299411     -1.052896
  O      -1.050457      0.369247     -0.419866
  O       0.177728      1.503600      1.977947
  H      -0.054141      1.810877      2.842361
  O      -2.118342      2.698044      2.757092
  H      -3.012155      2.601381      3.051713
  O      -4.003461      0.983897      1.598303
  H      -4.354172      0.153712      1.878331
  C       1.049164      1.392198     -0.734871
  H       1.096718      0.977783     -1.741684
  H       1.597860      2.335003     -0.717862
  H       1.523352      0.698405     -0.044441
  C      -2.977934     -0.998588     -0.417028
  H      -4.062796     -0.984710     -0.357700
  H      -2.694793     -1.311007     -1.420934
  O      -2.453355     -1.917531      0.519987
  C      -3.074683     -3.071457      0.713891
  O      -4.110999     -3.344455      0.212812
  C      -2.302747     -3.960675      1.645560
  H      -1.336889     -4.195072      1.198123
  H      -2.110604     -3.437810      2.581964
  H      -2.861842     -4.873318      1.828995
31
Coordinates from ORCA-job 8 Relaxed Surface Scan Step 15
  C      -2.435962      0.387339     -0.116257
  C      -0.407591      1.592538     -0.343298
  C      -0.550994      2.237440      1.034326
  C      -2.020194      2.277197      1.440145
  C      -2.641851      0.897875      1.309363
  H      -2.952587      1.070337     -0.804728
  H      -0.184448      3.268344      0.969144
  H      -2.556913      2.957639      0.769097
  H      -2.128565      0.223944      1.993926
  H      -0.876180      2.276612     -1.064002
  O      -1.073524      0.358489     -0.399853
  O       0.187460      1.520115      1.969970
  H      -0.036492      1.840685      2.831661
  O      -2.091275      2.741988      2.752704
  H      -2.981820      2.651799      3.059041
  O      -3.997888      1.018773      1.643946
  H      -4.340656      0.193441      1.947096
  C       1.033346      1.356534     -0.746947
  H       1.068879      0.926612     -1.747736
  H       1.591076      2.294167     -0.748470
  H       1.506596      0.668829     -0.049807
  C      -3.017596     -0.985150     -0.369189
  H      -4.104238     -0.951540     -0.331533
  H      -2.724315     -1.324206     -1.360828
  O      -2.529728     -1.887463      0.602819
  C      -3.018165     -3.118939      0.627723
  O      -3.907673     -3.475524     -0.065439
  C      -2.308991     -3.974177      1.637736
  H      -1.257179     -4.055208      1.363681
  H      -2.356343     -3.503834      2.619523
  H      -2.765168     -4.959115      1.668561
31
Coordinates from ORCA-job 8 Relaxed Surface Scan Step 16
  C      -2.464663      0.398024     -0.090787
  C      -0.422519      1.571620     -0.348080
  C      -0.545056      2.232432      1.024330
  C      -2.009564      2.292617      1.446162
  C      -2.646486      0.918739      1.333911
  H      -2.975074      1.086021     -0.778769
  H      -0.167755      3.258439      0.944812
  H      -2.546174      2.973732      0.775678
  H      -2.128779      0.244254      2.014234
  H      -0.889276      2.253929     -1.071586
  O      -1.104811      0.345697     -0.385501
  O       0.195345      1.516433      1.959542
  H      -0.017250      1.847118      2.820302
  O      -2.060195      2.768997      2.755551
  H      -2.947320      2.687803      3.074099
  O      -3.996345      1.050752      1.688006
  H      -4.335548      0.228661      2.004043
  C       1.011517      1.313498     -0.762554
  H       1.032285      0.873026     -1.759158
  H       1.580767      2.244032     -0.778889
  H       1.482920      0.627191     -0.062792
  C      -3.068247     -0.966797     -0.334130
  H      -4.155835     -0.910199     -0.320089
  H      -2.760902     -1.328023     -1.312229
  O      -2.626513     -1.860076      0.668063
  C      -2.932483     -3.144092      0.547371
  O      -3.614692     -3.565060     -0.321814
  C      -2.310792     -3.966176      1.639150
  H      -1.225813     -3.882387      1.578319
  H      -2.616400     -3.580985      2.611688
  H      -2.613322     -5.003681      1.533493
31
Coordinates from ORCA-job 8 Relaxed Surface Scan Step 17
  C      -2.513507      0.414391     -0.071034
  C      -0.442844      1.531391     -0.348213
  C      -0.539600      2.203257      1.021138
  C      -1.999245      2.302275      1.453791
  C      -2.669981      0.943731      1.353039
  H      -3.008675      1.113964     -0.758479
  H      -0.137309      3.219000      0.932965
  H      -2.523783      2.993671      0.784255
  H      -2.160860      0.259444      2.029879
  H      -0.896730      2.220894     -1.073005
  O      -1.157023      0.323365     -0.373240
  O       0.189461      1.474314      1.955423
  H      -0.009421      1.814797      2.815660
  O      -2.027586      2.785897      2.761245
  H      -2.913108      2.724219      3.088548
  O      -4.012741      1.105920      1.720567
  H      -4.363689      0.291451      2.043865
  C       0.981320      1.234083     -0.770308
  H       0.984143      0.787016     -1.764163
  H       1.573977      2.149660     -0.796251
  H       1.439925      0.540410     -0.069305
  C      -3.152314     -0.935643     -0.308115
  H      -4.238720     -0.847371     -0.300959
  H      -2.845604     -1.313850     -1.278282
  O      -2.752594     -1.831894      0.709604
  C      -2.802906     -3.136517      0.473919
  O      -3.220566     -3.597063     -0.531232
  C      -2.265798     -3.925724      1.632669
  H      -1.224106     -3.653070      1.800980
  H      -2.822281     -3.678880      2.536661
  H      -2.346811     -4.987596      1.420752
31
Coordinates from ORCA-job 8 Relaxed Surface Scan Step 18
  C      -2.611864      0.439157     -0.056356
  C      -0.474123      1.428783     -0.327812
  C      -0.538339      2.113553      1.036756
  C      -1.992071      2.307290      1.456003
  C      -2.745622      0.992385      1.361101
  H      -3.066633      1.155793     -0.754239
  H      -0.071516      3.101076      0.946672
  H      -2.466956      3.023890      0.775966
  H      -2.286625      0.284488      2.049503
  H      -0.879760      2.140232     -1.059788
  O      -1.261691      0.266995     -0.350171
  O       0.135188      1.345047      1.981305
  H      -0.045748      1.705084      2.837544
  O      -2.000914      2.803519      2.758996
  H      -2.891272      2.800147      3.078876
  O      -4.078743      1.242313      1.715463
  H      -4.480194      0.458554      2.055383
  C       0.931384      1.040975     -0.738821
  H       0.912324      0.586858     -1.729223
  H       1.579423      1.918151     -0.767606
  H       1.342557      0.325751     -0.030061
  C      -3.316303     -0.881899     -0.275805
  H      -4.396111     -0.748495     -0.215071
  H      -3.066785     -1.268193     -1.258129
  O      -2.918925     -1.800991      0.721379
  C      -2.596222     -3.046602      0.391563
  O      -2.720372     -3.488410     -0.696774
  C      -2.065767     -3.801074      1.576181
  H      -1.158863     -3.313409      1.933618
  H      -2.795970     -3.778548      2.384878
  H      -1.852466     -4.826882      1.291045
31
Coordinates from ORCA-job 8 Relaxed Surface Scan Step 19
  C      -2.697899      0.446909     -0.048352
  C      -0.507049      1.323168     -0.310361
  C      -0.542993      2.013491      1.052112
  C      -1.986849      2.290714      1.457183
  C      -2.813291      1.019983      1.363234
  H      -3.117053      1.176368     -0.755250
  H      -0.019269      2.972287      0.965504
  H      -2.414885      3.028357      0.768598
  H      -2.404037      0.293395      2.063792
  H      -0.869329      2.052865     -1.046885
  O      -1.356861      0.206219     -0.332549
  O       0.076106      1.208558      2.004054
  H      -0.086074      1.583750      2.857535
  O      -1.979401      2.794787      2.757183
  H      -2.871661      2.847666      3.067195
  O      -4.133603      1.350052      1.700951
  H      -4.580766      0.598315      2.055479
  C       0.877118      0.857368     -0.712485
  H       0.837393      0.398483     -1.699912
  H       1.571497      1.698324     -0.743264
  H       1.246318      0.125155      0.002002
  C      -3.458491     -0.847217     -0.252278
  H      -4.526337     -0.678543     -0.124828
  H      -3.273696     -1.225835     -1.251826
  O      -3.058196     -1.801301      0.708413
  C      -2.388356     -2.889494      0.334889
  O      -2.226168     -3.207212     -0.789995
  C      -1.885919     -3.648482      1.528576
  H      -1.153064     -3.035445      2.053798
  H      -2.707903     -3.848696      2.215129
  H      -1.428261     -4.578451      1.204734
31
Coordinates from ORCA-job 8 Relaxed Surface Scan Step 20
  C      -2.687698      0.435112     -0.045267
  C      -0.515975      1.339221     -0.338710
  C      -0.539945      2.027516      1.025736
  C      -1.981053      2.277658      1.459754
  C      -2.788017      0.993573      1.373305
  H      -3.119274      1.170930     -0.738365
  H      -0.035570      2.995946      0.931438
  H      -2.434871      3.011770      0.784037
  H      -2.351729      0.269063      2.059951
  H      -0.901999      2.064008     -1.068165
  O      -1.349140      0.210255     -0.346857
  O       0.110970      1.232770      1.964925
  H      -0.041054      1.604810      2.821602
  O      -1.957291      2.774673      2.762338
  H      -2.844317      2.811935      3.089149
  O      -4.106550      1.296788      1.740338
  H      -4.533284      0.531747      2.091922
  C       0.867904      0.894266     -0.764359
  H       0.817691      0.435558     -1.751277
  H       1.549447      1.745301     -0.805331
  H       1.258743      0.165890     -0.057665
  C      -3.456337     -0.853111     -0.258858
  H      -4.521454     -0.662973     -0.144885