26
Coordinates from ORCA-job 4 Relaxed Surface Scan Step 1
  O      36.106631    -22.778787     -2.348679
  C      35.241564    -22.013470     -3.082380
  C      33.532248    -22.109253     -4.653283
  O      34.605283    -22.775358     -4.043503
  C      36.048744    -20.951195     -3.788735
  O      36.624809    -20.040672     -2.898351
  C      35.219257    -20.131488     -4.771216
  O      36.045961    -19.714263     -5.826637
  C      33.960256    -20.816957     -5.391995
  O      34.117845    -21.051327     -6.748210
  H      34.491366    -21.556273     -2.418111
  H      32.847531    -21.795685     -3.854643
  H      36.809652    -21.489907     -4.358251
  H      34.869840    -19.262588     -4.210365
  H      33.131556    -20.112486     -5.268518
  H      34.834270    -20.526406     -7.074224
  H      36.723215    -19.145864     -5.492380
  H      37.198598    -20.509053     -2.309948
  C      35.536818    -23.776655     -1.554651
  H      34.811888    -23.354065     -0.852172
  H      35.041786    -24.531930     -2.163738
  H      36.341500    -24.241770     -0.990698
  C      32.809826    -23.096956     -5.545538
  H      32.459995    -23.937213     -4.945711
  H      31.954690    -22.626207     -6.029907
  H      33.480872    -23.463172     -6.318158
26
Coordinates from ORCA-job 4 Relaxed Surface Scan Step 2
  O      36.069543    -22.744307     -2.285342
  C      35.233918    -21.993082     -3.066370
  C      33.528960    -22.152311     -4.651498
  O      34.617016    -22.777010     -4.020739
  C      36.074147    -20.978941     -3.802192
  O      36.730683    -20.094907     -2.946700
  C      35.251715    -20.148139     -4.785800
  O      36.016994    -19.896145     -5.934344
  C      33.876901    -20.748828     -5.246524
  O      33.761828    -20.728857     -6.630168
  H      34.473683    -21.502663     -2.437259
  H      32.766221    -21.982617     -3.881896
  H      36.785819    -21.569340     -4.384033
  H      35.037778    -19.205387     -4.280795
  H      33.111320    -20.074245     -4.858553
  H      34.579631    -20.439784     -7.009070
  H      36.754827    -19.348280     -5.714800
  H      37.266683    -20.594001     -2.347890
  C      35.466765    -23.708102     -1.473646
  H      34.734896    -23.252272     -0.799810
  H      34.971865    -24.473399     -2.070204
  H      36.251607    -24.168723     -0.878938
  C      32.972895    -23.124085     -5.670889
  H      32.707900    -24.054520     -5.168295
  H      32.088493    -22.714454     -6.155301
  H      33.713914    -23.334603     -6.438943
26
Coordinates from ORCA-job 4 Relaxed Surface Scan Step 3
  O      35.909393    -22.828209     -2.308444
  C      35.092700    -21.937400     -2.961235
  C      33.410824    -22.151345     -4.715812
  O      34.014646    -22.608228     -3.518498
  C      35.939185    -21.265976     -4.026292
  O      37.048157    -20.631122     -3.477673
  C      35.130507    -20.240887     -4.809206
  O      35.625406    -20.089077     -6.110073
  C      33.642604    -20.644577     -4.887063
  O      33.034798    -20.182832     -6.042672
  H      34.729410    -21.191102     -2.240395
  H      32.339133    -22.284718     -4.571565
  H      36.254379    -22.055125     -4.711132
  H      35.202969    -19.287949     -4.280263
  H      33.146076    -20.167748     -4.039712
  H      33.697192    -20.056029     -6.707444
  H      36.502041    -19.736904     -6.079150
  H      37.530129    -21.260143     -2.960478
  C      35.356440    -23.494198     -1.212032
  H      34.981586    -22.783485     -0.469388
  H      34.541958    -24.149355     -1.517634
  H      36.147014    -24.089041     -0.761018
  C      33.824151    -23.002944     -5.907990
  H      33.674280    -24.055445     -5.666404
  H      33.204599    -22.754326     -6.768740
  H      34.866421    -22.860833     -6.189689
26
Coordinates from ORCA-job 4 Relaxed Surface Scan Step 4
  O      35.996604    -22.741484     -2.211312
  C      35.189683    -21.970410     -3.005710
  C      33.497982    -22.160335     -4.692497
  O      34.445464    -22.778788     -3.844560
  C      36.091231    -21.078422     -3.840252
  O      36.776223    -20.165366     -3.042492
  C      35.289271    -20.322416     -4.910485
  O      35.723590    -20.616110     -6.212300
  C      33.794765    -20.648836     -4.847411
  O      33.114103    -20.099616     -5.922786
  H      34.529675    -21.362949     -2.369762
  H      32.512318    -22.243304     -4.223550
  H      36.781094    -21.753574     -4.352574
  H      35.403237    -19.254635     -4.715981
  H      33.410005    -20.150271     -3.957808
  H      33.639798    -20.218449     -6.701160
  H      36.575011    -20.238433     -6.367664
  H      37.251029    -20.643076     -2.378013
  C      35.354894    -23.577565     -1.294780
  H      34.699074    -23.004461     -0.632175
  H      34.766802    -24.341499     -1.801386
  H      36.126432    -24.055946     -0.696487
  C      33.476131    -22.942915     -5.992526
  H      33.287791    -23.993523     -5.770436
  H      32.683186    -22.580441     -6.644909
  H      34.430607    -22.866175     -6.510985
26
Coordinates from ORCA-job 4 Relaxed Surface Scan Step 5
  O      36.115949    -22.770697     -2.297657
  C      35.261594    -21.978954     -3.014396
  C      33.577012    -22.057436     -4.638089
  O      34.644606    -22.711583     -4.008685
  C      36.049851    -20.824714     -3.629572
  O      35.993654    -19.687253     -2.817810
  C      35.432026    -20.417553     -4.959575
  O      35.727213    -21.254232     -6.040897
  C      33.931450    -20.513574     -4.939349
  O      33.489835    -19.907518     -6.131986
  H      34.492021    -21.558142     -2.348048
  H      32.734770    -22.041134     -3.935771
  H      37.080211    -21.158579     -3.782586
  H      35.733186    -19.388897     -5.162522
  H      33.520516    -19.906995     -4.135340
  H      33.953254    -20.310433     -6.851492
  H      36.650446    -21.256133     -6.240239
  H      36.421983    -19.859104     -1.993411
  C      35.537181    -23.821392     -1.583073
  H      34.770977    -23.453300     -0.893369
  H      35.087750    -24.555580     -2.250310
  H      36.327969    -24.295909     -1.007197
  C      33.159907    -22.865482     -5.848833
  H      32.862830    -23.866173     -5.532295
  H      32.310490    -22.391424     -6.340360
  H      33.979319    -22.956806     -6.557140
26
Coordinates from ORCA-job 4 Relaxed Surface Scan Step 6
  O      36.282690    -22.762871     -2.725484
  C      35.175496    -21.948321     -2.816732
  C      33.466104    -21.743635     -4.518889
  O      34.277439    -22.520145     -3.691757
  C      35.663949    -20.605122     -3.329058
  O      34.796913    -19.542493     -2.974196
  C      35.616887    -20.593217     -4.854366
  O      35.811575    -21.781782     -5.602721
  C      34.199386    -20.388992     -5.246175
  O      34.339514    -20.047416     -6.628231
  H      34.710051    -21.839132     -1.826326
  H      32.687351    -21.290754     -3.899703
  H      36.666431    -20.435359     -2.935490
  H      36.255160    -19.793320     -5.228283
  H      33.719079    -19.524321     -4.821640
  H      34.789478    -20.751378     -7.070732
  H      36.526156    -22.303676     -5.268538
  H      34.933921    -19.308043     -2.069615
  C      36.064978    -24.056053     -2.244030
  H      35.572585    -24.031708     -1.267142
  H      35.454234    -24.639888     -2.931095
  H      37.038190    -24.528389     -2.133187
  C      32.820786    -22.669403     -5.526023
  H      32.266787    -23.458753     -5.014816
  H      32.130715    -22.112978     -6.161321
  H      33.580145    -23.131853     -6.154448
26
Coordinates from ORCA-job 4 Relaxed Surface Scan Step 7
  O      36.304757    -22.749088     -2.692072
  C      35.167342    -21.987682     -2.808241
  C      33.490492    -21.792055     -4.481421
  O      34.320549    -22.583338     -3.718192
  C      35.586383    -20.630069     -3.326631
  O      34.620006    -19.619829     -3.031489
  C      35.633938    -20.639469     -4.864954
  O      35.676446    -21.820632     -5.688676
  C      34.280455    -20.293782     -5.322578
  O      34.597832    -19.849267     -6.658371
  H      34.666888    -21.902697     -1.832518
  H      32.789204    -21.266061     -3.832329
  H      36.549648    -20.372267     -2.887932
  H      36.389907    -19.933012     -5.202710
  H      33.767619    -19.455481     -4.892067
  H      34.998182    -20.564060     -7.128972
  H      36.407741    -22.381132     -5.471386
  H      34.699164    -19.375107     -2.122184
  C      36.135437    -24.048130     -2.206722
  H      35.639727    -24.039949     -1.231249
  H      35.549947    -24.657355     -2.894116
  H      37.125542    -24.482573     -2.092123
  C      32.752010    -22.674489     -5.455805
  H      32.208227    -23.458318     -4.922275
  H      32.037650    -22.085603     -6.031993
  H      33.450907    -23.147556     -6.142994
26
Coordinates from ORCA-job 4 Relaxed Surface Scan Step 8
  O      36.299897    -22.733163     -2.752662
  C      35.128349    -22.022524     -2.803780
  C      33.387298    -21.909961     -4.374493
  O      34.249743    -22.660338     -3.657910
  C      35.450828    -20.646603     -3.344780
  O      34.411945    -19.714054     -3.060286
  C      35.635617    -20.670297     -4.882115
  O      35.598099    -21.864052     -5.681231
  C      34.465082    -20.039128     -5.485190
  O      34.893429    -19.638932     -6.745268
  H      34.680096    -21.954162     -1.802415
  H      32.776278    -21.255466     -3.762781
  H      36.376304    -20.317409     -2.873135
  H      36.565516    -20.143738     -5.125278
  H      33.954405    -19.219189     -5.019637
  H      35.287888    -20.382519     -7.177501
  H      36.355866    -22.407175     -5.511273
  H      34.491178    -19.431871     -2.162614
  C      36.220149    -24.031138     -2.241442
  H      35.788344    -24.030003     -1.236100
  H      35.619642    -24.675348     -2.882610
  H      37.233825    -24.420171     -2.186468
  C      32.637054    -22.747850     -5.359679
  H      32.100075    -23.550229     -4.838891
  H      31.916329    -22.138858     -5.902544
  H      33.322763    -23.204824     -6.069918
26
Coordinates from ORCA-job 4 Relaxed Surface Scan Step 9
  O      36.311854    -22.524800     -3.048733
  C      35.065600    -21.964485     -2.847305
  C      33.747378    -22.417333     -4.905517
  O      34.098444    -22.666828     -3.569747
  C      35.227598    -20.468565     -3.096621
  O      34.152021    -19.764946     -2.570901
  C      35.564934    -20.197305     -4.544128
  O      34.778807    -22.886146     -5.694048
  C      35.204297    -19.096977     -5.200459
  O      35.435748    -18.841740     -6.491914
  H      34.766125    -22.091653     -1.805751
  H      33.669831    -21.365000     -5.137189
  H      36.076936    -20.199166     -2.467398
  H      36.261056    -20.904689     -4.978716
  H      34.871701    -18.203855     -4.691083
  H      35.950410    -19.530518     -6.884410
  H      35.162713    -23.663664     -5.317117
  H      33.436512    -19.759696     -3.189835
  C      36.518771    -23.793680     -2.515265
  H      36.387561    -23.790996     -1.428319
  H      35.836188    -24.531201     -2.942460
  H      37.542324    -24.083275     -2.742943
  C      32.437823    -23.131787     -5.169954
  H      31.656079    -22.738959     -4.520457
  H      32.140528    -22.992081     -6.207735
  H      32.544761    -24.199656     -4.971993
26
Coordinates from ORCA-job 4 Relaxed Surface Scan Step 10
  O      36.268449    -22.524679     -3.166349
  C      35.067469    -21.918881     -2.879683
  C      33.663848    -22.485707     -4.837703
  O      33.982574    -22.558779     -3.480379
  C      35.218652    -20.418687     -3.156747
  O      34.049197    -19.743401     -2.806313
  C      35.726435    -20.074279     -4.537643
  O      34.682817    -22.914082     -5.661830
  C      35.418889    -18.949921     -5.162403
  O      35.869208    -18.566152     -6.367010
  H      34.845370    -22.015585     -1.815221
  H      33.488783    -21.452251     -5.130962
  H      35.967248    -20.097360     -2.430899
  H      36.407079    -20.784019     -4.991479
  H      34.749960    -18.217174     -4.732331
  H      36.444910    -19.221177     -6.732256
  H      34.903532    -23.811900     -5.463129
  H      33.323929    -20.065103     -3.318512
  C      36.474939    -23.789546     -2.623268
  H      36.426830    -23.764665     -1.530527
  H      35.738489    -24.510862     -2.982678
  H      37.467757    -24.117404     -2.922115
  C      32.398738    -23.297479     -5.020530
  H      31.597166    -22.904423     -4.396236
  H      32.088110    -23.270385     -6.064595
  H      32.575623    -24.335099     -4.729201
26
Coordinates from ORCA-job 4 Relaxed Surface Scan Step 11
  O      36.270741    -22.499713     -3.176049
  C      35.045034    -21.938021     -2.896002
  C      33.572581    -22.503556     -4.801740
  O      33.999441    -22.644855     -3.487202
  C      35.152653    -20.434370     -3.189042
  O      33.952953    -19.778966     -2.904469
  C      35.728473    -20.091799     -4.543734
  O      34.544016    -22.789314     -5.739575
  C      35.553647    -18.917509     -5.126359
  O      36.089050    -18.530779     -6.294128
  H      34.828817    -22.031559     -1.830188
  H      33.299189    -21.469068     -5.006733
  H      35.852667    -20.085775     -2.428309
  H      36.356914    -20.840129     -5.008091
  H      34.943870    -18.138629     -4.688086
  H      36.609153    -19.226072     -6.668243
  H      34.858449    -23.673128     -5.616923
  H      33.314889    -19.957143     -3.576147
  C      36.524563    -23.751384     -2.621171
  H      36.462194    -23.720869     -1.529299
  H      35.824052    -24.504900     -2.985422
  H      37.534399    -24.037906     -2.905436
  C      32.355805    -23.392106     -4.953180
  H      31.581735    -23.104291     -4.242950
  H      31.963092    -23.316019     -5.966660
  H      32.627625    -24.431139     -4.754861
26
Coordinates from ORCA-job 4 Relaxed Surface Scan Step 12
  O      36.258381    -22.421834     -3.208293
  C      34.995889    -21.944226     -2.935529
  C      33.492428    -22.597543     -4.781681
  O      34.007500    -22.743599     -3.504244
  C      35.003748    -20.443938     -3.266891
  O      33.731086    -19.890748     -3.062061
  C      35.610312    -20.098778     -4.609736
  O      34.420733    -22.829559     -5.782297
  C      35.903553    -18.849767     -4.936798
  O      36.458141    -18.439012     -6.083712
  H      34.792296    -22.028055     -1.866164
  H      33.160739    -21.574913     -4.944807
  H      35.642779    -20.024800     -2.488637
  H      35.834279    -20.905923     -5.294289
  H      35.715111    -18.017525     -4.268906
  H      36.624087    -19.173439     -6.656230
  H      34.780215    -23.699779     -5.688253
  H      33.321392    -19.711643     -3.891986
  C      36.601137    -23.642939     -2.634333
  H      36.531452    -23.601863     -1.543031
  H      35.960351    -24.451370     -2.990495
  H      37.630974    -23.857696     -2.910318
  C      32.309523    -23.537203     -4.881294
  H      31.567954    -23.294535     -4.121586
  H      31.854793    -23.461776     -5.868678
  H      32.637144    -24.566536     -4.719751
26
Coordinates from ORCA-job 4 Relaxed Surface Scan Step 13
  O      36.218266    -22.277159     -3.239489
  C      34.919663    -21.896899     -2.991134
  C      33.420682    -22.672359     -4.797662
  O      34.006777    -22.788719     -3.542722
  C      34.804454    -20.413557     -3.371322
  O      33.453556    -20.067444     -3.227173
  C      35.372023    -20.020851     -4.706975
  O      34.339259    -22.797108     -5.828535
  C      36.312001    -19.094544     -4.811305
  O      36.893520    -18.670847     -5.939591
  H      34.716419    -21.960716     -1.919409
  H      32.981696    -21.687103     -4.915280
  H      35.399146    -19.904556     -2.606470
  H      35.016429    -20.532330     -5.592438
  H      36.715350    -18.582026     -3.946422
  H      36.568037    -19.152483     -6.685634
  H      34.830920    -23.598245     -5.722323
  H      33.337865    -19.163193     -3.472107
  C      36.641914    -23.461089     -2.643057
  H      36.546656    -23.413720     -1.553567
  H      36.073481    -24.320918     -3.001007
  H      37.690906    -23.598011     -2.895772
  C      32.344584    -23.734351     -4.870133
  H      31.608257    -23.580501     -4.082567
  H      31.849004    -23.695229     -5.839937
  H      32.785134    -24.725041     -4.737968
26
Coordinates from ORCA-job 4 Relaxed Surface Scan Step 14
  O      36.260905    -22.205079     -3.122102
  C      34.926317    -21.894780     -3.018243
  C      33.362634    -22.657783     -4.813538
  O      34.155895    -22.845049     -3.687479
  C      34.795801    -20.414349     -3.398603
  O      33.441043    -20.072801     -3.270040
  C      35.379452    -20.018204     -4.724660
  O      34.105540    -22.618007     -5.984797
  C      36.391277    -19.168434     -4.807144
  O      37.005864    -18.765366     -5.924899
  H      34.611944    -21.973548     -1.973155
  H      32.848966    -21.705415     -4.761887
  H      35.377028    -19.909299     -2.621591
  H      34.977072    -20.477041     -5.619230
  H      36.835211    -18.713883     -3.930065
  H      36.639542    -19.196538     -6.682781
  H      34.639945    -23.396754     -6.044092
  H      33.325245    -19.167789     -3.512915
  C      36.668541    -23.404231     -2.544115
  H      36.411282    -23.440014     -1.480535
  H      36.216776    -24.264354     -3.038864
  H      37.750072    -23.462777     -2.643657
  C      32.363346    -23.795528     -4.831156
  H      31.746975    -23.772783     -3.933338
  H      31.723081    -23.715063     -5.709430
  H      32.886244    -24.754132     -4.861686
26
Coordinates from ORCA-job 4 Relaxed Surface Scan Step 15
  O      36.234999    -22.267683     -2.747340
  C      34.971895    -21.922492     -3.143833
  C      33.431323    -22.624529     -4.932652
  O      34.647636    -22.713113     -4.243707
  C      34.970619    -20.412540     -3.403661
  O      33.639696    -19.995716     -3.219162
  C      35.494086    -20.002777     -4.750176
  O      33.734828    -22.547919     -6.279488
  C      36.363862    -19.016626     -4.907000
  O      36.818611    -18.537757     -6.070960
  H      34.252365    -22.111151     -2.336607
  H      32.909742    -21.707583     -4.678834
  H      35.601944    -19.983768     -2.622387
  H      35.088658    -20.510383     -5.618508
  H      36.799880    -18.490251     -4.066610
  H      36.442309    -19.011503     -6.798028
  H      34.335058    -23.247156     -6.493680
  H      33.549912    -19.099486     -3.502160
  C      36.424825    -23.580722     -2.322281
  H      35.705538    -23.851864     -1.542542
  H      36.331701    -24.287797     -3.145847
  H      37.428328    -23.644558     -1.908021
  C      32.575238    -23.832796     -4.611786
  H      32.331380    -23.858461     -3.548951
  H      31.648104    -23.800893     -5.184074
  H      33.113464    -24.749477     -4.861704
26
Coordinates from ORCA-job 4 Relaxed Surface Scan Step 16
  O      36.194355    -22.206470     -2.765586
  C      34.932720    -21.856824     -3.161383
  C      33.306181    -22.654866     -4.803106
  O      34.590255    -22.657261     -4.248679
  C      34.945517    -20.352687     -3.446854
  O      33.608500    -19.930764     -3.349871
  C      35.543934    -19.972936     -4.768919
  O      33.409304    -22.299441     -6.136022
  C      36.515855    -19.081762     -4.886037
  O      37.061181    -18.646346     -6.028345
  H      34.213875    -22.028255     -2.348878
  H      32.689325    -21.894892     -4.334922
  H      35.534238    -19.910016     -2.639663
  H      35.105695    -20.429420     -5.649499
  H      36.973251    -18.609493     -4.025409
  H      36.667336    -19.076807     -6.772597
  H      34.009995    -22.892944     -6.562681
  H      33.529173    -19.055264     -3.693979
  C      36.376516    -23.514749     -2.323375
  H      35.670603    -23.764146     -1.524189
  H      36.257540    -24.233412     -3.133448
  H      37.387533    -23.584794     -1.928921
  C      32.692615    -24.029942     -4.633774
  H      32.586547    -24.273586     -3.575968
  H      31.710123    -24.066517     -5.104445
  H      33.333833    -24.785407     -5.093452
26
Coordinates from ORCA-job 4 Relaxed Surface Scan Step 17
  O      36.173485    -22.140865     -2.789365
  C      34.905083    -21.798835     -3.167621
  C      33.200788    -22.694422     -4.646585
  O      34.529329    -22.620900     -4.228068
  C      34.910543    -20.306199     -3.497083
  O      33.565928    -19.907200     -3.495354
  C      35.593484    -19.968737     -4.788674
  O      33.056097    -22.068241     -5.871519
  C      36.632957    -19.152131     -4.856841
  O      37.286223    -18.784082     -5.965310
  H      34.201939    -21.950544     -2.337334
  H      32.558758    -22.149982     -3.960323
  H      35.444126    -19.826559     -2.671963
  H      35.179544    -20.414561     -5.686062
  H      37.064096    -18.695139     -3.975013
  H      36.920303    -19.208347     -6.726954
  H      33.585635    -22.521041     -6.511123
  H      33.468957    -19.106365     -3.984794
  C      36.362756    -23.437279     -2.316997
  H      35.676198    -23.663259     -1.494219
  H      36.221899    -24.176621     -3.104816
  H      37.382955    -23.500847     -1.945769
  C      32.801946    -24.154771     -4.715943
  H      32.865856    -24.615657     -3.729958
  H      31.781627    -24.251159     -5.087073
  H      33.475486    -24.695257     -5.385239
26
Coordinates from ORCA-job 4 Relaxed Surface Scan Step 18
  O      36.144459    -22.095503     -2.835550
  C      34.877512    -21.731591     -3.198604
  C      33.119584    -22.738662     -4.527722
  O      34.470668    -22.525983     -4.271050
  C      34.892864    -20.242944     -3.534159
  O      33.552491    -19.839608     -3.599066
  C      35.660101    -19.943000     -4.786940
  O      32.699200    -22.006074     -5.621918
  C      36.728986    -19.162085     -4.795658
  O      37.495639    -18.867314     -5.850413
  H      34.180996    -21.886418     -2.364051
  H      32.522989    -22.377536     -3.692474
  H      35.383853    -19.749042     -2.691500
  H      35.323480    -20.429374     -5.696651
  H      37.092173    -18.679954     -3.897094
  H      37.192779    -19.317846     -6.624532
  H      33.159702    -22.306555     -6.391390
  H      33.413046    -19.274497     -4.340602
  C      36.320172    -23.397150     -2.374692
  H      35.640884    -23.619982     -1.544785
  H      36.158944    -24.128420     -3.166540
  H      37.343765    -23.478835     -2.016587
  C      32.903825    -24.224160     -4.737757
  H      33.175817    -24.783203     -3.842281
  H      31.860030    -24.425091     -4.979059
  H      33.532041    -24.578173     -5.558927
26
Coordinates from ORCA-job 4 Relaxed Surface Scan Step 19
  O      36.123007    -22.040177     -2.786559
  C      34.870383    -21.666819     -3.179381
  C      33.115351    -22.800514     -4.400280
  O      34.454550    -22.512629     -4.219592
  C      34.915495    -20.192351     -3.589080
  O      33.618062    -19.686931     -3.679824
  C      35.732474    -19.962501     -4.830058
  O      32.500188    -21.852625     -5.213802
  C      36.819499    -19.210509     -4.845708
  O      37.608922    -18.963188     -5.899904
  H      34.156556    -21.765008     -2.350996
  H      32.587963    -22.739128     -3.447519
  H      35.387009    -19.672713     -2.756480
  H      35.403555    -20.454742     -5.740760
  H      37.182763    -18.711122     -3.956702
  H      37.294050    -19.414850     -6.668133
  H      32.799392    -21.954390     -6.106197
  H      33.137031    -20.130582     -4.365743
  C      36.264988    -23.315084     -2.245876
  H      35.572652    -23.472289     -1.411865
  H      36.097062    -24.089878     -2.994187
  H      37.282792    -23.397977     -1.872543
  C      32.998123    -24.191464     -4.984222
  H      33.416890    -24.926854     -4.298690
  H      31.952913    -24.434350     -5.173493
  H      33.554329    -24.250325     -5.922408
26
Coordinates from ORCA-job 4 Relaxed Surface Scan Step 20
  O      36.079240    -22.001935     -2.774054
  C      34.842774    -21.610241     -3.201755
  C      33.119001    -22.871869     -4.336117
  O      34.430373    -22.445445     -4.251441
  C      34.926643    -20.143338     -3.629557
  O      33.643288    -19.609850     -3.753320
  C      35.769393    -19.952182     -4.859934
  O      32.316384    -21.920764     -4.959287
  C      36.895053    -19.259461     -4.857023
  O      37.713971    -19.053453     -5.898030
  H      34.108298    -21.687237     -2.389652
  H      32.699406    -22.982631     -3.335167
  H      35.396831    -19.620358     -2.798255
  H      35.426475    -20.425404     -5.775478
  H      37.270251    -18.781564     -3.961160
  H      37.387525    -19.486948     -6.671865
  H      32.476003    -21.926282     -5.892546
  H      33.105478    -20.155022     -4.311664
  C      36.186766    -23.275845     -2.225035
  H      35.470121    -23.419777     -1.409177
  H      36.028444    -24.051659     -2.974872
  H      37.192654    -23.373791     -1.824150
  C      33.091649    -24.192811     -5.073033
  H      33.665298    -24.942585     -4.530444
  H      32.065081    -24.540926     -5.184452
  H      33.539599    -24.077622     -6.062532
26
Coordinates from ORCA-job 4 Relaxed Surface Scan Step 21
  O      36.043324    -21.976070     -2.777628
  C      34.820542    -21.568494     -3.231426
  C      33.131969    -22.938376     -4.280226
  O      34.402826    -22.393480     -4.285848
  C      34.937147    -20.110839     -3.679374
  O      33.664259    -19.567387     -3.863941
  C      35.820856    -19.951337     -4.885007
  O      32.186661    -22.013930     -4.712612
  C      36.956630    -19.276383     -4.856198
  O      37.810091    -19.096377     -5.874645
  H      34.073183    -21.623701     -2.429601
  H      32.839296    -23.184345     -3.258409
  H      35.386045    -19.577301     -2.842536
  H      35.494490    -20.429713     -5.803665
  H      37.312301    -18.792637     -3.955463
  H      37.498475    -19.533354     -6.652647
  H      32.202938    -21.950554     -5.657131
  H      33.089731    -20.190539     -4.286480
  C      36.120762    -23.244830     -2.213268
  H      35.393538    -23.366411     -1.403066
  H      35.956294    -24.026742     -2.955989
  H      37.120430    -23.358304     -1.801212
  C      33.140893    -24.179265     -5.144654
  H      33.839376    -24.914135     -4.747943
  H      32.144469    -24.618869     -5.182924
  H      33.459473    -23.925627     -6.158107
26
Coordinates from ORCA-job 4 Relaxed Surface Scan Step 22
  O      36.017285    -21.952341     -2.790150
  C      34.803126    -21.541183     -3.265044
  C      33.154076    -22.999632     -4.238036
  O      34.382283    -22.367241     -4.316157
  C      34.937714    -20.093774     -3.738016
  O      33.673069    -19.558962     -3.998800
  C      35.867819    -19.958613     -4.910352
  O      32.115479    -22.108000     -4.484136
  C      37.002235    -19.283905     -4.847717
  O      37.896836    -19.122668     -5.833656
  H      34.048172    -21.578036     -2.469238
  H      32.985214    -23.355261     -3.220421
  H      35.355023    -19.542740     -2.895099
  H      35.573382    -20.452813     -5.831118
  H      37.321237    -18.783589     -3.942282
  H      37.615338    -19.572098     -6.616059
  H      32.010281    -21.979144     -5.416257
  H      33.064059    -20.238012     -4.250185
  C      36.076319    -23.208855     -2.197771
  H      35.350752    -23.300829     -1.382211
  H      35.897036    -24.005112     -2.922147
  H      37.075757    -23.329825     -1.787419
  C      33.152821    -24.155393     -5.212433
  H      33.937407    -24.866446     -4.959359
  H      32.189493    -24.664524     -5.192134
  H      33.343789    -23.790002     -6.223802
26
Coordinates from ORCA-job 4 Relaxed Surface Scan Step 23
  O      35.970749    -21.927130     -2.709811
  C      34.769695    -21.596215     -3.278519
  C      33.199279    -23.123756     -4.255481
  O      34.435977    -22.488208     -4.291856
  C      34.896639    -20.172647     -3.830846
  O      33.646226    -19.730189     -4.289924
  C      35.872462    -20.079440     -4.962207
  O      32.163889    -22.211113     -4.331490
  C      36.931872    -19.290144     -4.937948
  O      37.842918    -19.149076     -5.909749
  H      33.977200    -21.615462     -2.517372
  H      33.069456    -23.633770     -3.297225
  H      35.243060    -19.547443     -3.003556
  H      35.666052    -20.697670     -5.829110
  H      37.164222    -18.663416     -4.086385
  H      37.637242    -19.706771     -6.644939
  H      32.360604    -21.576342     -5.007918
  H      33.016688    -19.738796     -3.585007
  C      36.052447    -23.162219     -2.074656
  H      35.286252    -23.263124     -1.298120
  H      35.948518    -23.985854     -2.782135
  H      37.031491    -23.223668     -1.605884
  C      33.171475    -24.123811     -5.389218
  H      33.972641    -24.853945     -5.277153
  H      32.212680    -24.641016     -5.402185
  H      33.306265    -23.607775     -6.341306
26
Coordinates from ORCA-job 4 Relaxed Surface Scan Step 24
  O      35.970170    -21.891703     -2.733526
  C      34.761898    -21.588607     -3.304754
  C      33.223451    -23.176210     -4.225228
  O      34.435342    -22.496262     -4.306046
  C      34.867259    -20.174592     -3.886338
  O      33.617328    -19.776042     -4.389727
  C      35.878533    -20.082103     -4.985989
  O      32.160328    -22.297472     -4.141741
  C      36.959175    -19.326399     -4.902115